
    -----------------------------------------------------------------------
          Psi4: An Open-Source Ab Initio Electronic Structure Package
                               Psi4 1.9.1 release

                         Git: Rev {} zzzzzzz 


    D. G. A. Smith, L. A. Burns, A. C. Simmonett, R. M. Parrish,
    M. C. Schieber, R. Galvelis, P. Kraus, H. Kruse, R. Di Remigio,
    A. Alenaizan, A. M. James, S. Lehtola, J. P. Misiewicz, M. Scheurer,
    R. A. Shaw, J. B. Schriber, Y. Xie, Z. L. Glick, D. A. Sirianni,
    J. S. O'Brien, J. M. Waldrop, A. Kumar, E. G. Hohenstein,
    B. P. Pritchard, B. R. Brooks, H. F. Schaefer III, A. Yu. Sokolov,
    K. Patkowski, A. E. DePrince III, U. Bozkaya, R. A. King,
    F. A. Evangelista, J. M. Turney, T. D. Crawford, C. D. Sherrill,
    J. Chem. Phys. 152(18) 184108 (2020). https://doi.org/10.1063/5.0006002

                            Additional Code Authors
    E. T. Seidl, C. L. Janssen, E. F. Valeev, M. L. Leininger,
    J. F. Gonthier, R. M. Richard, H. R. McAlexander, M. Saitow, X. Wang,
    P. Verma, M. H. Lechner, A. Jiang, S. Behnle, A. G. Heide,
    M. F. Herbst, and D. L. Poole

             Previous Authors, Complete List of Code Contributors,
                       and Citations for Specific Modules
    https://github.com/psi4/psi4/blob/master/codemeta.json
    https://github.com/psi4/psi4/graphs/contributors
    http://psicode.org/psi4manual/master/introduction.html#citing-psifour

    -----------------------------------------------------------------------


    Psi4 started on: Sunday, 10 August 2025 05:28PM

    Process ID: 48863
    Host:       Mac.lan
    PSIDATADIR: /Users/joseantoniorodriguesromero/anaconda3/share/psi4
    Memory:     500.0 MiB
    Threads:    1
    
  ==> Input File <==

--------------------------------------------------------------------------
molecule { 
-1 2
O           0.000000           0.000000           0.000000
O           0.000000           0.000000           1.298549
}

set { 
basis              cc-pvtz
reference          uks
maxiter            500
DAMPING_PERCENTAGE 1
E_CONVERGENCE      1.0E-8
D_CONVERGENCE      1.0E-8
DIIS_MAX_VECS      400
MBIS_MAXITER       8000
guess              read
}

E, wfn = energy('b3lyp', restart_file='last_wfn', return_wfn=True)
properties('b3lyp','MBIS_CHARGES', wfn=wfn)
wfn.to_file('last_wfn')
--------------------------------------------------------------------------

Scratch directory: /tmp/
 Found user provided orbital data. Setting orbital guess to READ 
 Copying restart file <last_wfn.npy> to </tmp/scan_OO_27.default.48863.180.npy> for internal processing
   => Libint2 <=

    Primary   basis highest AM E, G, H:  6, 6, 3
    Auxiliary basis highest AM E, G, H:  7, 7, 4
    Onebody   basis highest AM E, G, H:  -, -, -
    Solid Harmonics ordering:            Gaussian

*** tstart() called on Mac.lan
*** at Sun Aug 10 17:28:12 2025

   => Loading Basis Set <=

    Name: CC-PVTZ
    Role: ORBITAL
    Keyword: BASIS
    atoms 1-2 entry O          line   262 file /Users/joseantoniorodriguesromero/anaconda3/share/psi4/basis/cc-pvtz.gbs 


         ---------------------------------------------------------
                                   SCF
               by Justin Turney, Rob Parrish, Andy Simmonett
                          and Daniel G. A. Smith
                              UKS Reference
                        1 Threads,    500 MiB Core
         ---------------------------------------------------------

  ==> Geometry <==

    Molecular point group: d2h
    Full point group: D_inf_h

    Geometry (in Angstrom), charge = -1, multiplicity = 2:

       Center              X                  Y                   Z               Mass       
    ------------   -----------------  -----------------  -----------------  -----------------
         O            0.000000000000     0.000000000000    -0.649274500000    15.994914619570
         O            0.000000000000     0.000000000000     0.649274500000    15.994914619570

  Running in d2h symmetry.

  Rotational constants: A = ************  B =      1.25005  C =      1.25005 [cm^-1]
  Rotational constants: A = ************  B =  37475.59912  C =  37475.59912 [MHz]
  Nuclear repulsion =   26.080911450303375

  Charge       = -1
  Multiplicity = 2
  Electrons    = 17
  Nalpha       = 9
  Nbeta        = 8

  ==> Algorithm <==

  SCF Algorithm Type is DF.
  DIIS enabled.
  MOM disabled.
  Fractional occupation disabled.
  Guess Type is READ.
  Energy threshold   = 1.00e-08
  Density threshold  = 1.00e-08
  Integral threshold = 1.00e-12

  ==> Primary Basis <==

  Basis Set: CC-PVTZ
    Blend: CC-PVTZ
    Number of shells: 20
    Number of basis functions: 60
    Number of Cartesian functions: 70
    Spherical Harmonics?: true
    Max angular momentum: 3

  ==> DFT Potential <==

   => LibXC <=

    Version 6.2.2
    S. Lehtola, C. Steigemann, M. J.T. Oliveira, and M. A.L. Marques.,  SoftwareX 7, 1–5 (2018) (10.1016/j.softx.2017.11.002)

   => Composite Functional: B3LYP <= 

    B3LYP Hyb-GGA Exchange-Correlation Functional

    P. J. Stephens, F. J. Devlin, C. F. Chabalowski, and M. J. Frisch.,  J. Phys. Chem. 98, 11623 (1994) (10.1021/j100096a001)

    Deriv               =              1
    GGA                 =           TRUE
    Meta                =          FALSE

    Exchange Hybrid     =           TRUE
    MP2 Hybrid          =          FALSE

   => Exchange Functionals <=

    0.0800   Slater exchange
    0.7200         Becke 88

   => Exact (HF) Exchange <=

    0.2000               HF 

   => Correlation Functionals <=

    0.1900   Vosko, Wilk & Nusair (VWN5_RPA)
    0.8100   Lee, Yang & Parr

   => LibXC Density Thresholds  <==

    XC_HYB_GGA_XC_B3LYP:  1.00E-15 

   => Molecular Quadrature <=

    Radial Scheme          =       TREUTLER
    Pruning Scheme         =           NONE
    Nuclear Scheme         =       TREUTLER

    Blocking Scheme        =         OCTREE
    BS radius alpha        =              1
    Pruning alpha          =              1
    Radial Points          =             75
    Spherical Points       =            302
    Total Points           =          42434
    Total Blocks           =            376
    Max Points             =            251
    Max Functions          =             60
    Weights Tolerance      =       1.00E-15

   => Loading Basis Set <=

    Name: (CC-PVTZ AUX)
    Role: JKFIT
    Keyword: DF_BASIS_SCF
    atoms 1-2 entry O          line   229 file /Users/joseantoniorodriguesromero/anaconda3/share/psi4/basis/cc-pvtz-jkfit.gbs 

   => Loading Basis Set <=

    Name: CC-PVTZ
    Role: ORBITAL
    Keyword: BASIS
    atoms 1-2 entry O          line   262 file /Users/joseantoniorodriguesromero/anaconda3/share/psi4/basis/cc-pvtz.gbs 

  Reading orbitals from file /tmp/scan_OO_27.default.48863.180.npy, no projection.

  ==> Integral Setup <==

  DFHelper Memory: AOs need 0.005 GiB; user supplied 0.296 GiB. 
  Using in-core AOs.

  ==> MemDFJK: Density-Fitted J/K Matrices <==

    J tasked:                   Yes
    K tasked:                   Yes
    wK tasked:                   No
    OpenMP threads:               1
    Memory [MiB]:               303
    Algorithm:                 Core
    Schwarz Cutoff:           1E-12
    Mask sparsity (%):       0.0000
    Fitting Condition:        1E-10

   => Auxiliary Basis Set <=

  Basis Set: (CC-PVTZ AUX)
    Blend: CC-PVTZ-JKFIT
    Number of shells: 50
    Number of basis functions: 158
    Number of Cartesian functions: 192
    Spherical Harmonics?: true
    Max angular momentum: 4

  Cached 100.0% of DFT collocation blocks in 0.070 [GiB].

  Minimum eigenvalue in the overlap matrix is 1.0519214152E-02.
  Reciprocal condition number of the overlap matrix is 3.2679426353E-03.
    Using symmetric orthogonalization.

  ==> Pre-Iterations <==

  SCF Guess: Orbitals guess was supplied from a previous computation.

   -------------------------------------------------------
    Irrep   Nso     Nmo     Nalpha   Nbeta   Ndocc  Nsocc
   -------------------------------------------------------
     Ag        13      13       3       3       3       0
     B1g        3       3       0       0       0       0
     B2g        7       7       1       1       1       0
     B3g        7       7       1       0       0       1
     Au         3       3       0       0       0       0
     B1u       13      13       2       2       2       0
     B2u        7       7       1       1       1       0
     B3u        7       7       1       1       1       0
   -------------------------------------------------------
    Total      60      60       9       8       8       1
   -------------------------------------------------------

  ==> Iterations <==

                           Total Energy        Delta E     RMS |[F,P]|

   @DF-UKS iter   0:  -150.34796257112973   -1.50348e+02   4.08158e-03 
   @DF-UKS iter   1:  -150.37538835004946   -2.74258e-02   8.54687e-04 ADIIS/DIIS
   @DF-UKS iter   2:  -150.37547521592847   -8.68659e-05   4.27353e-04 ADIIS/DIIS/DAMP=1%
   @DF-UKS iter   3:  -150.37537187268953    1.03343e-04   5.95135e-05 DIIS/DAMP=1%
   @DF-UKS iter   4:  -150.37555296040460   -1.81088e-04   4.91907e-06 DIIS/DAMP=1%
   @DF-UKS iter   5:  -150.37550070436578    5.22560e-05   3.25855e-07 DIIS/DAMP=1%
   @DF-UKS iter   6:  -150.37550438354126   -3.67918e-06   4.60915e-08 DIIS/DAMP=1%
   @DF-UKS iter   7:  -150.37550418305653    2.00485e-07   7.66812e-09 DIIS/DAMP=1%
   @DF-UKS iter   8:  -150.37550421437419   -3.13177e-08   5.20511e-10 DIIS/DAMP=1%
   @DF-UKS iter   9:  -150.37550421012955    4.24464e-09   6.23020e-11 DIIS/DAMP=1%
  Energy and wave function converged.


  ==> Post-Iterations <==

   Electrons on quadrature grid:
      Nalpha   =    8.9999999931 ; deviation = -6.923e-09
      Nbeta    =    7.9999999283 ; deviation = -7.174e-08
      Ntotal   =   16.9999999213 ; deviation = -7.866e-08 

   @Spin Contamination Metric:   3.934354794E-03
   @S^2 Expected:                7.500000000E-01
   @S^2 Observed:                7.539343548E-01
   @S   Expected:                5.000000000E-01
   @S   Observed:                5.000000000E-01

    Orbital Energies [Eh]
    ---------------------

    Alpha Occupied:                                                       

       1Ag   -18.827063     1B1u  -18.826950     2Ag    -0.803626  
       2B1u   -0.434583     1B2u   -0.128338     3Ag    -0.122501  
       1B3u   -0.089553     1B3g    0.078549     1B2g    0.120965  

    Alpha Virtual:                                                        

       3B1u    0.476944     4B1u    0.808969     2B2u    0.836636  
       2B3u    0.859174     4Ag     0.878342     2B3g    0.928126  
       2B2g    0.948856     5Ag     1.036032     5B1u    1.549120  
       1B1g    1.624545     6Ag     1.624701     3B2u    1.627711  
       3B3u    1.652809     1Au     1.962461     6B1u    1.962693  
       7Ag     2.365747     3B3g    2.465954     3B2g    2.491994  
       7B1u    2.517919     4B2u    3.786867     4B3u    3.821758  
       8Ag     3.914637     4B3g    4.036686     4B2g    4.074270  
       8B1u    4.996492     5B2u    5.014843     5B3u    5.043737  
       9Ag     5.051637     2B1g    5.053153    10Ag     5.184033  
       6B2u    5.364251     6B3u    5.364296     5B3g    5.519119  
       5B2g    5.519134     2Au     5.916333     9B1u    5.916565  
      11Ag     6.448526     3B1g    6.448536     6B3g    6.513232  
       6B2g    6.546056    10B1u    6.573809     3Au     6.637828  
      11B1u    6.643125     7B2u    6.678232     7B3u    6.712754  
      12B1u    6.805409    12Ag     7.158048     7B3g    7.369536  
       7B2g    7.399816    13Ag     7.963032    13B1u   10.864733  

    Beta Occupied:                                                        

       1Ag   -18.812824     1B1u  -18.812659     2Ag    -0.774214  
       2B1u   -0.391696     3Ag    -0.105683     1B3u   -0.077890  
       1B2u   -0.044051     1B2g    0.135797  

    Beta Virtual:                                                         

       1B3g    0.245019     3B1u    0.494253     4B1u    0.819093  
       2B3u    0.864528     2B2u    0.872418     4Ag     0.884733  
       2B2g    0.954791     2B3g    0.968555     5Ag     1.046534  
       5B1u    1.566720     1B1g    1.645702     6Ag     1.646910  
       3B2u    1.653645     3B3u    1.654408     1Au     1.991633  
       6B1u    1.993154     7Ag     2.381213     3B2g    2.495741  
       3B3g    2.497693     7B1u    2.527302     4B3u    3.832199  
       4B2u    3.848237     8Ag     3.924737     4B2g    4.085868  
       4B3g    4.100052     8B1u    5.013710     5B2u    5.044704  
       5B3u    5.047974     2B1g    5.073922     9Ag     5.075134  
      10Ag     5.199148     6B3u    5.398787     6B2u    5.399074  
       5B2g    5.555112     5B3g    5.555405     2Au     5.942067  
       9B1u    5.943565     3B1g    6.499396    11Ag     6.502953  
       6B2g    6.552787     6B3g    6.561126    10B1u    6.600724  
       3Au     6.686606    11B1u    6.690543     7B3u    6.719469  
       7B2u    6.729165    12B1u    6.818929    12Ag     7.172738  
       7B2g    7.403663     7B3g    7.404680    13Ag     7.989110  
      13B1u   10.884678  

    Final Occupation by Irrep:
             Ag   B1g   B2g   B3g    Au   B1u   B2u   B3u 
    DOCC [     3,    0,    1,    0,    0,    2,    1,    1 ]
    SOCC [     0,    0,    0,    1,    0,    0,    0,    0 ]
    NA   [     3,    0,    1,    1,    0,    2,    1,    1 ]
    NB   [     3,    0,    1,    0,    0,    2,    1,    1 ]

  @DF-UKS Final Energy:  -150.37550421012955

   => Energetics <=

    Nuclear Repulsion Energy =             26.0809114503033754
    One-Electron Energy =                -264.9041952836095106
    Two-Electron Energy =                 102.4991660803501361
    DFT Exchange-Correlation Energy =     -14.0513864571735443
    Empirical Dispersion Energy =           0.0000000000000000
    VV10 Nonlocal Energy =                  0.0000000000000000
    Total Energy =                       -150.3755042101295487

  UHF NO Occupations:
  HONO-2 :    2B1u 1.9997121
  HONO-1 :    1B2u 1.9985780
  HONO-0 :    1B3g 1.0000000
  LUNO+0 :    2B2u 0.0014220
  LUNO+1 :    3B1u 0.0002879
  LUNO+2 :    4 Ag 0.0001460
  LUNO+3 :    2B2g 0.0000508


Computation Completed


Properties will be evaluated at   0.000000,   0.000000,   0.000000 [a0]

Properties computed using the SCF density matrix


 Multipole Moments:

 ------------------------------------------------------------------------------------
     Multipole            Electronic (a.u.)      Nuclear  (a.u.)        Total (a.u.)
 ------------------------------------------------------------------------------------

 L = 1.  Multiply by 2.5417464519 to convert [e a0] to [Debye]
 Dipole X            :          0.0000000            0.0000000            0.0000000
 Dipole Y            :          0.0000000            0.0000000            0.0000000
 Dipole Z            :          0.0000000            0.0000000            0.0000000
 Magnitude           :                                                    0.0000000

 ------------------------------------------------------------------------------------

*** tstop() called on Mac.lan at Sun Aug 10 17:28:14 2025
Module time:
	user time   =      13.34 seconds =       0.22 minutes
	system time =       1.75 seconds =       0.03 minutes
	total time  =          2 seconds =       0.03 minutes
Total time:
	user time   =      13.34 seconds =       0.22 minutes
	system time =       1.75 seconds =       0.03 minutes
	total time  =          2 seconds =       0.03 minutes

*** tstart() called on Mac.lan
*** at Sun Aug 10 17:28:14 2025

   => Libint2 <=

    Primary   basis highest AM E, G, H:  6, 6, 3
    Auxiliary basis highest AM E, G, H:  7, 7, 4
    Onebody   basis highest AM E, G, H:  -, -, -
    Solid Harmonics ordering:            Gaussian
   => Loading Basis Set <=

    Name: CC-PVTZ
    Role: ORBITAL
    Keyword: BASIS
    atoms 1-2 entry O          line   262 file /Users/joseantoniorodriguesromero/anaconda3/share/psi4/basis/cc-pvtz.gbs 


         ---------------------------------------------------------
                                   SCF
               by Justin Turney, Rob Parrish, Andy Simmonett
                          and Daniel G. A. Smith
                              UKS Reference
                        1 Threads,    500 MiB Core
         ---------------------------------------------------------

  ==> Geometry <==

    Molecular point group: d2h
    Full point group: D_inf_h

    Geometry (in Angstrom), charge = -1, multiplicity = 2:

       Center              X                  Y                   Z               Mass       
    ------------   -----------------  -----------------  -----------------  -----------------
         O            0.000000000000     0.000000000000    -0.649274500000    15.994914619570
         O            0.000000000000     0.000000000000     0.649274500000    15.994914619570

  Running in d2h symmetry.

  Rotational constants: A = ************  B =      1.25005  C =      1.25005 [cm^-1]
  Rotational constants: A = ************  B =  37475.59912  C =  37475.59912 [MHz]
  Nuclear repulsion =   26.080911450303375

  Charge       = -1
  Multiplicity = 2
  Electrons    = 17
  Nalpha       = 9
  Nbeta        = 8

  ==> Algorithm <==

  SCF Algorithm Type is DF.
  DIIS enabled.
  MOM disabled.
  Fractional occupation disabled.
  Guess Type is READ.
  Energy threshold   = 1.00e-08
  Density threshold  = 1.00e-08
  Integral threshold = 1.00e-12

  ==> Primary Basis <==

  Basis Set: CC-PVTZ
    Blend: CC-PVTZ
    Number of shells: 20
    Number of basis functions: 60
    Number of Cartesian functions: 70
    Spherical Harmonics?: true
    Max angular momentum: 3

  ==> DFT Potential <==

   => LibXC <=

    Version 6.2.2
    S. Lehtola, C. Steigemann, M. J.T. Oliveira, and M. A.L. Marques.,  SoftwareX 7, 1–5 (2018) (10.1016/j.softx.2017.11.002)

   => Composite Functional: B3LYP <= 

    B3LYP Hyb-GGA Exchange-Correlation Functional

    P. J. Stephens, F. J. Devlin, C. F. Chabalowski, and M. J. Frisch.,  J. Phys. Chem. 98, 11623 (1994) (10.1021/j100096a001)

    Deriv               =              1
    GGA                 =           TRUE
    Meta                =          FALSE

    Exchange Hybrid     =           TRUE
    MP2 Hybrid          =          FALSE

   => Exchange Functionals <=

    0.0800   Slater exchange
    0.7200         Becke 88

   => Exact (HF) Exchange <=

    0.2000               HF 

   => Correlation Functionals <=

    0.1900   Vosko, Wilk & Nusair (VWN5_RPA)
    0.8100   Lee, Yang & Parr

   => LibXC Density Thresholds  <==

    XC_HYB_GGA_XC_B3LYP:  1.00E-15 

   => Molecular Quadrature <=

    Radial Scheme          =       TREUTLER
    Pruning Scheme         =           NONE
    Nuclear Scheme         =       TREUTLER

    Blocking Scheme        =         OCTREE
    BS radius alpha        =              1
    Pruning alpha          =              1
    Radial Points          =             75
    Spherical Points       =            302
    Total Points           =          42434
    Total Blocks           =            376
    Max Points             =            251
    Max Functions          =             60
    Weights Tolerance      =       1.00E-15

   => Loading Basis Set <=

    Name: (CC-PVTZ AUX)
    Role: JKFIT
    Keyword: DF_BASIS_SCF
    atoms 1-2 entry O          line   229 file /Users/joseantoniorodriguesromero/anaconda3/share/psi4/basis/cc-pvtz-jkfit.gbs 

   => Loading Basis Set <=

    Name: CC-PVTZ
    Role: ORBITAL
    Keyword: BASIS
    atoms 1-2 entry O          line   262 file /Users/joseantoniorodriguesromero/anaconda3/share/psi4/basis/cc-pvtz.gbs 

  Reading orbitals from file /tmp/scan_OO_27.default.48863.180.npy, no projection.

  ==> Integral Setup <==

  DFHelper Memory: AOs need 0.005 GiB; user supplied 0.296 GiB. 
  Using in-core AOs.

  ==> MemDFJK: Density-Fitted J/K Matrices <==

    J tasked:                   Yes
    K tasked:                   Yes
    wK tasked:                   No
    OpenMP threads:               1
    Memory [MiB]:               303
    Algorithm:                 Core
    Schwarz Cutoff:           1E-12
    Mask sparsity (%):       0.0000
    Fitting Condition:        1E-10

   => Auxiliary Basis Set <=

  Basis Set: (CC-PVTZ AUX)
    Blend: CC-PVTZ-JKFIT
    Number of shells: 50
    Number of basis functions: 158
    Number of Cartesian functions: 192
    Spherical Harmonics?: true
    Max angular momentum: 4

  Cached 100.0% of DFT collocation blocks in 0.070 [GiB].

  Minimum eigenvalue in the overlap matrix is 1.0519214152E-02.
  Reciprocal condition number of the overlap matrix is 3.2679426353E-03.
    Using symmetric orthogonalization.

  ==> Pre-Iterations <==

  SCF Guess: Orbitals guess was supplied from a previous computation.

   -------------------------------------------------------
    Irrep   Nso     Nmo     Nalpha   Nbeta   Ndocc  Nsocc
   -------------------------------------------------------
     Ag        13      13       3       3       3       0
     B1g        3       3       0       0       0       0
     B2g        7       7       1       1       1       0
     B3g        7       7       1       0       0       1
     Au         3       3       0       0       0       0
     B1u       13      13       2       2       2       0
     B2u        7       7       1       1       1       0
     B3u        7       7       1       1       1       0
   -------------------------------------------------------
    Total      60      60       9       8       8       1
   -------------------------------------------------------

  ==> Iterations <==

                           Total Energy        Delta E     RMS |[F,P]|

   @DF-UKS iter   0:  -150.37550421011844   -1.50376e+02   5.44305e-12 
   @DF-UKS iter   1:  -150.37550421011858   -1.42109e-13   4.95447e-12 DIIS
  Energy and wave function converged.


  ==> Post-Iterations <==

   Electrons on quadrature grid:
      Nalpha   =    8.9999999931 ; deviation = -6.923e-09
      Nbeta    =    7.9999999283 ; deviation = -7.174e-08
      Ntotal   =   16.9999999213 ; deviation = -7.866e-08 

   @Spin Contamination Metric:   3.934354801E-03
   @S^2 Expected:                7.500000000E-01
   @S^2 Observed:                7.539343548E-01
   @S   Expected:                5.000000000E-01
   @S   Observed:                5.000000000E-01

    Orbital Energies [Eh]
    ---------------------

    Alpha Occupied:                                                       

       1Ag   -18.827063     1B1u  -18.826950     2Ag    -0.803626  
       2B1u   -0.434583     1B2u   -0.128338     3Ag    -0.122501  
       1B3u   -0.089553     1B3g    0.078549     1B2g    0.120965  

    Alpha Virtual:                                                        

       3B1u    0.476944     4B1u    0.808969     2B2u    0.836636  
       2B3u    0.859174     4Ag     0.878342     2B3g    0.928126  
       2B2g    0.948856     5Ag     1.036032     5B1u    1.549120  
       1B1g    1.624545     6Ag     1.624701     3B2u    1.627711  
       3B3u    1.652809     1Au     1.962461     6B1u    1.962693  
       7Ag     2.365747     3B3g    2.465954     3B2g    2.491994  
       7B1u    2.517919     4B2u    3.786867     4B3u    3.821758  
       8Ag     3.914637     4B3g    4.036686     4B2g    4.074270  
       8B1u    4.996492     5B2u    5.014843     5B3u    5.043737  
       9Ag     5.051637     2B1g    5.053153    10Ag     5.184033  
       6B2u    5.364251     6B3u    5.364296     5B3g    5.519119  
       5B2g    5.519134     2Au     5.916333     9B1u    5.916565  
      11Ag     6.448526     3B1g    6.448536     6B3g    6.513232  
       6B2g    6.546056    10B1u    6.573809     3Au     6.637828  
      11B1u    6.643125     7B2u    6.678232     7B3u    6.712754  
      12B1u    6.805409    12Ag     7.158048     7B3g    7.369536  
       7B2g    7.399816    13Ag     7.963032    13B1u   10.864733  

    Beta Occupied:                                                        

       1Ag   -18.812824     1B1u  -18.812659     2Ag    -0.774214  
       2B1u   -0.391696     3Ag    -0.105683     1B3u   -0.077890  
       1B2u   -0.044051     1B2g    0.135797  

    Beta Virtual:                                                         

       1B3g    0.245019     3B1u    0.494253     4B1u    0.819093  
       2B3u    0.864528     2B2u    0.872418     4Ag     0.884733  
       2B2g    0.954791     2B3g    0.968555     5Ag     1.046534  
       5B1u    1.566720     1B1g    1.645702     6Ag     1.646910  
       3B2u    1.653645     3B3u    1.654408     1Au     1.991633  
       6B1u    1.993154     7Ag     2.381213     3B2g    2.495741  
       3B3g    2.497693     7B1u    2.527302     4B3u    3.832199  
       4B2u    3.848237     8Ag     3.924737     4B2g    4.085868  
       4B3g    4.100052     8B1u    5.013710     5B2u    5.044704  
       5B3u    5.047974     2B1g    5.073922     9Ag     5.075134  
      10Ag     5.199148     6B3u    5.398787     6B2u    5.399074  
       5B2g    5.555112     5B3g    5.555405     2Au     5.942067  
       9B1u    5.943565     3B1g    6.499396    11Ag     6.502953  
       6B2g    6.552787     6B3g    6.561126    10B1u    6.600724  
       3Au     6.686606    11B1u    6.690543     7B3u    6.719469  
       7B2u    6.729165    12B1u    6.818929    12Ag     7.172738  
       7B2g    7.403663     7B3g    7.404680    13Ag     7.989110  
      13B1u   10.884678  

    Final Occupation by Irrep:
             Ag   B1g   B2g   B3g    Au   B1u   B2u   B3u 
    DOCC [     3,    0,    1,    0,    0,    2,    1,    1 ]
    SOCC [     0,    0,    0,    1,    0,    0,    0,    0 ]
    NA   [     3,    0,    1,    1,    0,    2,    1,    1 ]
    NB   [     3,    0,    1,    0,    0,    2,    1,    1 ]

  @DF-UKS Final Energy:  -150.37550421011858

   => Energetics <=

    Nuclear Repulsion Energy =             26.0809114503033754
    One-Electron Energy =                -264.9041952867244163
    Two-Electron Energy =                 102.4991660837585812
    DFT Exchange-Correlation Energy =     -14.0513864574561076
    Empirical Dispersion Energy =           0.0000000000000000
    VV10 Nonlocal Energy =                  0.0000000000000000
    Total Energy =                       -150.3755042101185779

  UHF NO Occupations:
  HONO-2 :    2B1u 1.9997121
  HONO-1 :    1B2u 1.9985780
  HONO-0 :    1B3g 1.0000000
  LUNO+0 :    2B2u 0.0014220
  LUNO+1 :    3B1u 0.0002879
  LUNO+2 :    4 Ag 0.0001460
  LUNO+3 :    2B2g 0.0000508


Computation Completed


Properties will be evaluated at   0.000000,   0.000000,   0.000000 [a0]

Properties computed using the B3LYP density matrix


 Multipole Moments:

 ------------------------------------------------------------------------------------
     Multipole            Electronic (a.u.)      Nuclear  (a.u.)        Total (a.u.)
 ------------------------------------------------------------------------------------

 L = 1.  Multiply by 2.5417464519 to convert [e a0] to [Debye]
 Dipole X            :          0.0000000            0.0000000            0.0000000
 Dipole Y            :          0.0000000            0.0000000            0.0000000
 Dipole Z            :          0.0000000            0.0000000            0.0000000
 Magnitude           :                                                    0.0000000

 L = 2.  Multiply by 1.3450342976 to convert [e a0^2] to [Debye ang]
 Quadrupole XX       :         -9.5944757            0.0000000           -9.5944757
 Quadrupole XY       :          0.0000000            0.0000000            0.0000000
 Quadrupole XZ       :          0.0000000            0.0000000            0.0000000
 Quadrupole YY       :         -8.7826341            0.0000000           -8.7826341
 Quadrupole YZ       :          0.0000000            0.0000000            0.0000000
 Quadrupole ZZ       :        -35.3931207           24.0865395          -11.3065812
 Traceless XX        :          8.3289345           -8.0288465            0.3000879
 Traceless YY        :          9.1407761           -8.0288465            1.1119296
 Traceless ZZ        :        -17.4697105           16.0576930           -1.4120175

 ------------------------------------------------------------------------------------
  ==> Computing MBIS Charges <==

  Electron Count from Grid (Expected Number): 17.00000 (17.00000)
  Difference: -0.00000

  MBIS Charges: (a.u.)
   Center  Symbol  Z      Pop.       Charge
      1       O    8    8.500000   -0.500000
      2       O    8    8.500000   -0.500000

  MBIS Dipoles: [e a0]
   Center  Symbol  Z        X           Y           Z
      1       O    8   -0.000000    0.000000    0.219698
      2       O    8   -0.000000    0.000000   -0.219698

  MBIS Quadrupoles: [e a0^2]
   Center  Symbol  Z      XX        XY        XZ        YY        YZ        ZZ
      1       O    8   -4.7972   -0.0000   -0.0000   -4.3913    0.0000   -4.3615
      2       O    8   -4.7972   -0.0000    0.0000   -4.3913   -0.0000   -4.3615

  MBIS Octupoles: [e a0^3]
   Center  Symbol  Z      XXX       XXY       XXZ       XYY       XYZ       XZZ       YYY       YYZ       YZZ       ZZZ
      1       O    8   -0.0000    0.0000    0.3499   -0.0000   -0.0000   -0.0000    0.0000    0.2033    0.0000   -0.0699
      2       O    8   -0.0000   -0.0000   -0.3499   -0.0000    0.0000   -0.0000    0.0000   -0.2033    0.0000    0.0699

  MBIS Radial Moments:
   Center  Symbol  Z      [a0^2]      [a0^3]      [a0^4]      
      1       O    8   13.550025   27.142279   64.916360
      2       O    8   13.550025   27.142279   64.916360

  MBIS Valence Widths: [a0]
   Center  Symbol  Z     Width
      1       O    8    0.406834
      2       O    8    0.406834

*** tstop() called on Mac.lan at Sun Aug 10 17:28:14 2025
Module time:
	user time   =       3.43 seconds =       0.06 minutes
	system time =       1.90 seconds =       0.03 minutes
	total time  =          0 seconds =       0.00 minutes
Total time:
	user time   =      16.81 seconds =       0.28 minutes
	system time =       3.79 seconds =       0.06 minutes
	total time  =          2 seconds =       0.03 minutes

    Psi4 stopped on: Sunday, 10 August 2025 05:28PM
    Psi4 wall time for execution: 0:00:02.01

*** Psi4 exiting successfully. Buy a developer a beer!
