
    -----------------------------------------------------------------------
          Psi4: An Open-Source Ab Initio Electronic Structure Package
                               Psi4 1.9.1 release

                         Git: Rev {} zzzzzzz 


    D. G. A. Smith, L. A. Burns, A. C. Simmonett, R. M. Parrish,
    M. C. Schieber, R. Galvelis, P. Kraus, H. Kruse, R. Di Remigio,
    A. Alenaizan, A. M. James, S. Lehtola, J. P. Misiewicz, M. Scheurer,
    R. A. Shaw, J. B. Schriber, Y. Xie, Z. L. Glick, D. A. Sirianni,
    J. S. O'Brien, J. M. Waldrop, A. Kumar, E. G. Hohenstein,
    B. P. Pritchard, B. R. Brooks, H. F. Schaefer III, A. Yu. Sokolov,
    K. Patkowski, A. E. DePrince III, U. Bozkaya, R. A. King,
    F. A. Evangelista, J. M. Turney, T. D. Crawford, C. D. Sherrill,
    J. Chem. Phys. 152(18) 184108 (2020). https://doi.org/10.1063/5.0006002

                            Additional Code Authors
    E. T. Seidl, C. L. Janssen, E. F. Valeev, M. L. Leininger,
    J. F. Gonthier, R. M. Richard, H. R. McAlexander, M. Saitow, X. Wang,
    P. Verma, M. H. Lechner, A. Jiang, S. Behnle, A. G. Heide,
    M. F. Herbst, and D. L. Poole

             Previous Authors, Complete List of Code Contributors,
                       and Citations for Specific Modules
    https://github.com/psi4/psi4/blob/master/codemeta.json
    https://github.com/psi4/psi4/graphs/contributors
    http://psicode.org/psi4manual/master/introduction.html#citing-psifour

    -----------------------------------------------------------------------


    Psi4 started on: Sunday, 10 August 2025 05:45PM

    Process ID: 49426
    Host:       Mac.lan
    PSIDATADIR: /Users/joseantoniorodriguesromero/anaconda3/share/psi4
    Memory:     500.0 MiB
    Threads:    1
    
  ==> Input File <==

--------------------------------------------------------------------------
molecule { 
-1 3
O           0.000000           0.000000           0.000000
N           0.000000           0.000000           0.890883
}

set { 
basis              cc-pvtz
reference          uks
maxiter            500
DAMPING_PERCENTAGE 1
E_CONVERGENCE      1.0E-8
D_CONVERGENCE      1.0E-8
DIIS_MAX_VECS      400
MBIS_MAXITER       8000
guess              read
}

E, wfn = energy('b3lyp', restart_file='last_wfn', return_wfn=True)
properties('b3lyp','MBIS_CHARGES', wfn=wfn)
wfn.to_file('last_wfn')
--------------------------------------------------------------------------

Scratch directory: /tmp/
 Found user provided orbital data. Setting orbital guess to READ 
 Copying restart file <last_wfn.npy> to </tmp/scan_NO_16.default.49426.180.npy> for internal processing
   => Libint2 <=

    Primary   basis highest AM E, G, H:  6, 6, 3
    Auxiliary basis highest AM E, G, H:  7, 7, 4
    Onebody   basis highest AM E, G, H:  -, -, -
    Solid Harmonics ordering:            Gaussian

*** tstart() called on Mac.lan
*** at Sun Aug 10 17:45:39 2025

   => Loading Basis Set <=

    Name: CC-PVTZ
    Role: ORBITAL
    Keyword: BASIS
    atoms 1 entry O          line   262 file /Users/joseantoniorodriguesromero/anaconda3/share/psi4/basis/cc-pvtz.gbs 
    atoms 2 entry N          line   224 file /Users/joseantoniorodriguesromero/anaconda3/share/psi4/basis/cc-pvtz.gbs 


         ---------------------------------------------------------
                                   SCF
               by Justin Turney, Rob Parrish, Andy Simmonett
                          and Daniel G. A. Smith
                              UKS Reference
                        1 Threads,    500 MiB Core
         ---------------------------------------------------------

  ==> Geometry <==

    Molecular point group: c2v
    Full point group: C_inf_v

    Geometry (in Angstrom), charge = -1, multiplicity = 3:

       Center              X                  Y                   Z               Mass       
    ------------   -----------------  -----------------  -----------------  -----------------
         O            0.000000000000     0.000000000000    -0.415864567943    15.994914619570
         N            0.000000000000     0.000000000000     0.475018432057    14.003074004430

  Running in c2v symmetry.

  Rotational constants: A = ************  B =      2.84474  C =      2.84474 [cm^-1]
  Rotational constants: A = ************  B =  85283.04176  C =  85283.04176 [MHz]
  Nuclear repulsion =   33.263541674406177

  Charge       = -1
  Multiplicity = 3
  Electrons    = 16
  Nalpha       = 9
  Nbeta        = 7

  ==> Algorithm <==

  SCF Algorithm Type is DF.
  DIIS enabled.
  MOM disabled.
  Fractional occupation disabled.
  Guess Type is READ.
  Energy threshold   = 1.00e-08
  Density threshold  = 1.00e-08
  Integral threshold = 1.00e-12

  ==> Primary Basis <==

  Basis Set: CC-PVTZ
    Blend: CC-PVTZ
    Number of shells: 20
    Number of basis functions: 60
    Number of Cartesian functions: 70
    Spherical Harmonics?: true
    Max angular momentum: 3

  ==> DFT Potential <==

   => LibXC <=

    Version 6.2.2
    S. Lehtola, C. Steigemann, M. J.T. Oliveira, and M. A.L. Marques.,  SoftwareX 7, 1–5 (2018) (10.1016/j.softx.2017.11.002)

   => Composite Functional: B3LYP <= 

    B3LYP Hyb-GGA Exchange-Correlation Functional

    P. J. Stephens, F. J. Devlin, C. F. Chabalowski, and M. J. Frisch.,  J. Phys. Chem. 98, 11623 (1994) (10.1021/j100096a001)

    Deriv               =              1
    GGA                 =           TRUE
    Meta                =          FALSE

    Exchange Hybrid     =           TRUE
    MP2 Hybrid          =          FALSE

   => Exchange Functionals <=

    0.0800   Slater exchange
    0.7200         Becke 88

   => Exact (HF) Exchange <=

    0.2000               HF 

   => Correlation Functionals <=

    0.1900   Vosko, Wilk & Nusair (VWN5_RPA)
    0.8100   Lee, Yang & Parr

   => LibXC Density Thresholds  <==

    XC_HYB_GGA_XC_B3LYP:  1.00E-15 

   => Molecular Quadrature <=

    Radial Scheme          =       TREUTLER
    Pruning Scheme         =           NONE
    Nuclear Scheme         =       TREUTLER

    Blocking Scheme        =         OCTREE
    BS radius alpha        =              1
    Pruning alpha          =              1
    Radial Points          =             75
    Spherical Points       =            302
    Total Points           =          42670
    Total Blocks           =            382
    Max Points             =            255
    Max Functions          =             60
    Weights Tolerance      =       1.00E-15

   => Loading Basis Set <=

    Name: (CC-PVTZ AUX)
    Role: JKFIT
    Keyword: DF_BASIS_SCF
    atoms 1 entry O          line   229 file /Users/joseantoniorodriguesromero/anaconda3/share/psi4/basis/cc-pvtz-jkfit.gbs 
    atoms 2 entry N          line   177 file /Users/joseantoniorodriguesromero/anaconda3/share/psi4/basis/cc-pvtz-jkfit.gbs 

   => Loading Basis Set <=

    Name: CC-PVTZ
    Role: ORBITAL
    Keyword: BASIS
    atoms 1 entry O          line   262 file /Users/joseantoniorodriguesromero/anaconda3/share/psi4/basis/cc-pvtz.gbs 
    atoms 2 entry N          line   224 file /Users/joseantoniorodriguesromero/anaconda3/share/psi4/basis/cc-pvtz.gbs 

  Reading orbitals from file /tmp/scan_NO_16.default.49426.180.npy, no projection.

  ==> Integral Setup <==

  DFHelper Memory: AOs need 0.005 GiB; user supplied 0.295 GiB. 
  Using in-core AOs.

  ==> MemDFJK: Density-Fitted J/K Matrices <==

    J tasked:                   Yes
    K tasked:                   Yes
    wK tasked:                   No
    OpenMP threads:               1
    Memory [MiB]:               302
    Algorithm:                 Core
    Schwarz Cutoff:           1E-12
    Mask sparsity (%):       0.0000
    Fitting Condition:        1E-10

   => Auxiliary Basis Set <=

  Basis Set: (CC-PVTZ AUX)
    Blend: CC-PVTZ-JKFIT
    Number of shells: 50
    Number of basis functions: 158
    Number of Cartesian functions: 192
    Spherical Harmonics?: true
    Max angular momentum: 4

  Cached 100.0% of DFT collocation blocks in 0.071 [GiB].

  Minimum eigenvalue in the overlap matrix is 1.4607506328E-03.
  Reciprocal condition number of the overlap matrix is 3.5053679762E-04.
    Using symmetric orthogonalization.

  ==> Pre-Iterations <==

  SCF Guess: Orbitals guess was supplied from a previous computation.

   -------------------------------------------------------
    Irrep   Nso     Nmo     Nalpha   Nbeta   Ndocc  Nsocc
   -------------------------------------------------------
     A1        26      26       5       5       5       0
     A2         6       6       0       0       0       0
     B1        14      14       2       1       1       1
     B2        14      14       2       1       1       1
   -------------------------------------------------------
    Total      60      60       9       7       7       2
   -------------------------------------------------------

  ==> Iterations <==

                           Total Energy        Delta E     RMS |[F,P]|

   @DF-UKS iter   0:  -129.56122791663046   -1.29561e+02   7.49157e-03 
   @DF-UKS iter   1:  -129.53510360733577    2.61243e-02   1.45636e-03 ADIIS/DIIS
   @DF-UKS iter   2:  -129.53472659510254    3.77012e-04   1.84061e-03 ADIIS/DIIS/DAMP=1%
   @DF-UKS iter   3:  -129.53501909814895   -2.92503e-04   1.01178e-04 ADIIS/DIIS/DAMP=1%
   @DF-UKS iter   4:  -129.53587624441556   -8.57146e-04   4.94228e-05 DIIS/DAMP=1%
   @DF-UKS iter   5:  -129.53604170462680   -1.65460e-04   1.32214e-05 DIIS/DAMP=1%
   @DF-UKS iter   6:  -129.53597675517622    6.49495e-05   1.42397e-06 DIIS/DAMP=1%
   @DF-UKS iter   7:  -129.53598739051614   -1.06353e-05   2.10957e-07 DIIS/DAMP=1%
   @DF-UKS iter   8:  -129.53598828997366   -8.99458e-07   3.80119e-08 DIIS/DAMP=1%
   @DF-UKS iter   9:  -129.53598813621880    1.53755e-07   5.27637e-09 DIIS/DAMP=1%
   @DF-UKS iter  10:  -129.53598816170745   -2.54886e-08   8.20721e-10 DIIS/DAMP=1%
   @DF-UKS iter  11:  -129.53598816114169    5.65763e-10   1.60704e-10 DIIS/DAMP=1%
  Energy and wave function converged.


  ==> Post-Iterations <==

   Electrons on quadrature grid:
      Nalpha   =    8.9999997487 ; deviation = -2.513e-07
      Nbeta    =    6.9999998115 ; deviation = -1.885e-07
      Ntotal   =   15.9999995602 ; deviation = -4.398e-07 

   @Spin Contamination Metric:   2.602631425E-03
   @S^2 Expected:                2.000000000E+00
   @S^2 Observed:                2.002602631E+00
   @S   Expected:                1.000000000E+00
   @S   Observed:                1.000000000E+00

    Orbital Energies [Eh]
    ---------------------

    Alpha Occupied:                                                       

       1A1   -18.825461     2A1   -13.964445     3A1    -1.065152  
       4A1    -0.288237     1B2    -0.279178     1B1    -0.279178  
       5A1    -0.123796     2B1     0.283937     2B2     0.283937  

    Alpha Virtual:                                                        

       6A1     0.517130     3B1     0.686879     3B2     0.686879  
       7A1     0.717234     8A1     0.835795     4B2     0.906999  
       4B1     0.906999     9A1     1.256760     1A2     1.256761  
      10A1     1.414476    11A1     1.530612     5B1     1.639934  
       5B2     1.639934     2A2     1.955515    12A1     1.955516  
      13A1     2.298169     6B1     2.415833     6B2     2.415833  
      14A1     2.853246     7B1     3.123914     7B2     3.123914  
      15A1     3.581375    16A1     4.077073     8B2     4.112017  
       8B1     4.112017     9B2     4.201839     9B1     4.201839  
      17A1     4.276418     3A2     4.276418    10B1     4.566841  
      10B2     4.566841    18A1     4.761052     4A2     4.761053  
      19A1     5.048123    11B1     5.234995    11B2     5.234995  
      12B2     5.518896    12B1     5.518896    20A1     6.086157  
       5A2     6.514662    21A1     6.514665    22A1     6.584099  
       6A2     6.584099    13B1     6.950447    13B2     6.950447  
      23A1     7.179728    24A1     7.808800    14B1     8.430714  
      14B2     8.430714    25A1     9.414135    26A1    21.633594  

    Beta Occupied:                                                        

       1A1   -18.806316     2A1   -13.945432     3A1    -1.037825  
       4A1    -0.236267     1B2    -0.215036     1B1    -0.215036  
       5A1    -0.066561  

    Beta Virtual:                                                         

       2B1     0.431593     2B2     0.431593     6A1     0.528798  
       3B1     0.719420     3B2     0.719420     7A1     0.738135  
       8A1     0.863447     4B2     0.957918     4B1     0.957918  
       1A2     1.298561     9A1     1.298561    10A1     1.451149  
      11A1     1.549034     5B1     1.677251     5B2     1.677251  
      12A1     2.007553     2A2     2.007554    13A1     2.319700  
       6B1     2.449827     6B2     2.449827    14A1     2.886829  
       7B1     3.178598     7B2     3.178598    15A1     3.610623  
      16A1     4.104345     8B2     4.169630     8B1     4.169630  
       9B2     4.252243     9B1     4.252243    17A1     4.307797  
       3A2     4.307797    10B1     4.604262    10B2     4.604262  
      18A1     4.842343     4A2     4.842343    19A1     5.075188  
      11B1     5.267027    11B2     5.267027    12B2     5.568489  
      12B1     5.568489    20A1     6.113923     5A2     6.583746  
      21A1     6.583749    22A1     6.624084     6A2     6.624084  
      13B1     6.984468    13B2     6.984468    23A1     7.197850  
      24A1     7.831586    14B1     8.469240    14B2     8.469240  
      25A1     9.448180    26A1    21.660788  

    Final Occupation by Irrep:
             A1    A2    B1    B2 
    DOCC [     5,    0,    1,    1 ]
    SOCC [     0,    0,    1,    1 ]
    NA   [     5,    0,    2,    2 ]
    NB   [     5,    0,    1,    1 ]

  @DF-UKS Final Energy:  -129.53598816114169

   => Energetics <=

    Nuclear Repulsion Energy =             33.2635416744061772
    One-Electron Energy =                -247.4791879730190090
    Two-Electron Energy =                  97.6951988005942695
    DFT Exchange-Correlation Energy =     -13.0155406631231418
    Empirical Dispersion Energy =           0.0000000000000000
    VV10 Nonlocal Energy =                  0.0000000000000000
    Total Energy =                       -129.5359881611416881

  UHF NO Occupations:
  HONO-2 :    5 A1 1.9995680
  HONO-1 :    2 B2 1.0000000
  HONO-0 :    2 B1 1.0000000
  LUNO+0 :    6 A1 0.0004320
  LUNO+1 :    3 B2 0.0003634
  LUNO+2 :    3 B1 0.0003634
  LUNO+3 :    7 A1 0.0001357


Computation Completed


Properties will be evaluated at   0.000000,   0.000000,   0.000000 [a0]

Properties computed using the SCF density matrix


 Multipole Moments:

 ------------------------------------------------------------------------------------
     Multipole            Electronic (a.u.)      Nuclear  (a.u.)        Total (a.u.)
 ------------------------------------------------------------------------------------

 L = 1.  Multiply by 2.5417464519 to convert [e a0] to [Debye]
 Dipole X            :          0.0000000            0.0000000            0.0000000
 Dipole Y            :          0.0000000            0.0000000            0.0000000
 Dipole Z            :         -0.7872705           -0.0033779           -0.7906484
 Magnitude           :                                                    0.7906484

 ------------------------------------------------------------------------------------

*** tstop() called on Mac.lan at Sun Aug 10 17:45:52 2025
Module time:
	user time   =     124.27 seconds =       2.07 minutes
	system time =       3.20 seconds =       0.05 minutes
	total time  =         13 seconds =       0.22 minutes
Total time:
	user time   =     124.27 seconds =       2.07 minutes
	system time =       3.20 seconds =       0.05 minutes
	total time  =         13 seconds =       0.22 minutes

*** tstart() called on Mac.lan
*** at Sun Aug 10 17:45:52 2025

   => Libint2 <=

    Primary   basis highest AM E, G, H:  6, 6, 3
    Auxiliary basis highest AM E, G, H:  7, 7, 4
    Onebody   basis highest AM E, G, H:  -, -, -
    Solid Harmonics ordering:            Gaussian
   => Loading Basis Set <=

    Name: CC-PVTZ
    Role: ORBITAL
    Keyword: BASIS
    atoms 1 entry O          line   262 file /Users/joseantoniorodriguesromero/anaconda3/share/psi4/basis/cc-pvtz.gbs 
    atoms 2 entry N          line   224 file /Users/joseantoniorodriguesromero/anaconda3/share/psi4/basis/cc-pvtz.gbs 


         ---------------------------------------------------------
                                   SCF
               by Justin Turney, Rob Parrish, Andy Simmonett
                          and Daniel G. A. Smith
                              UKS Reference
                        1 Threads,    500 MiB Core
         ---------------------------------------------------------

  ==> Geometry <==

    Molecular point group: c2v
    Full point group: C_inf_v

    Geometry (in Angstrom), charge = -1, multiplicity = 3:

       Center              X                  Y                   Z               Mass       
    ------------   -----------------  -----------------  -----------------  -----------------
         O            0.000000000000     0.000000000000    -0.415864567943    15.994914619570
         N            0.000000000000     0.000000000000     0.475018432057    14.003074004430

  Running in c2v symmetry.

  Rotational constants: A = ************  B =      2.84474  C =      2.84474 [cm^-1]
  Rotational constants: A = ************  B =  85283.04176  C =  85283.04176 [MHz]
  Nuclear repulsion =   33.263541674406177

  Charge       = -1
  Multiplicity = 3
  Electrons    = 16
  Nalpha       = 9
  Nbeta        = 7

  ==> Algorithm <==

  SCF Algorithm Type is DF.
  DIIS enabled.
  MOM disabled.
  Fractional occupation disabled.
  Guess Type is READ.
  Energy threshold   = 1.00e-08
  Density threshold  = 1.00e-08
  Integral threshold = 1.00e-12

  ==> Primary Basis <==

  Basis Set: CC-PVTZ
    Blend: CC-PVTZ
    Number of shells: 20
    Number of basis functions: 60
    Number of Cartesian functions: 70
    Spherical Harmonics?: true
    Max angular momentum: 3

  ==> DFT Potential <==

   => LibXC <=

    Version 6.2.2
    S. Lehtola, C. Steigemann, M. J.T. Oliveira, and M. A.L. Marques.,  SoftwareX 7, 1–5 (2018) (10.1016/j.softx.2017.11.002)

   => Composite Functional: B3LYP <= 

    B3LYP Hyb-GGA Exchange-Correlation Functional

    P. J. Stephens, F. J. Devlin, C. F. Chabalowski, and M. J. Frisch.,  J. Phys. Chem. 98, 11623 (1994) (10.1021/j100096a001)

    Deriv               =              1
    GGA                 =           TRUE
    Meta                =          FALSE

    Exchange Hybrid     =           TRUE
    MP2 Hybrid          =          FALSE

   => Exchange Functionals <=

    0.0800   Slater exchange
    0.7200         Becke 88

   => Exact (HF) Exchange <=

    0.2000               HF 

   => Correlation Functionals <=

    0.1900   Vosko, Wilk & Nusair (VWN5_RPA)
    0.8100   Lee, Yang & Parr

   => LibXC Density Thresholds  <==

    XC_HYB_GGA_XC_B3LYP:  1.00E-15 

   => Molecular Quadrature <=

    Radial Scheme          =       TREUTLER
    Pruning Scheme         =           NONE
    Nuclear Scheme         =       TREUTLER

    Blocking Scheme        =         OCTREE
    BS radius alpha        =              1
    Pruning alpha          =              1
    Radial Points          =             75
    Spherical Points       =            302
    Total Points           =          42670
    Total Blocks           =            382
    Max Points             =            255
    Max Functions          =             60
    Weights Tolerance      =       1.00E-15

   => Loading Basis Set <=

    Name: (CC-PVTZ AUX)
    Role: JKFIT
    Keyword: DF_BASIS_SCF
    atoms 1 entry O          line   229 file /Users/joseantoniorodriguesromero/anaconda3/share/psi4/basis/cc-pvtz-jkfit.gbs 
    atoms 2 entry N          line   177 file /Users/joseantoniorodriguesromero/anaconda3/share/psi4/basis/cc-pvtz-jkfit.gbs 

   => Loading Basis Set <=

    Name: CC-PVTZ
    Role: ORBITAL
    Keyword: BASIS
    atoms 1 entry O          line   262 file /Users/joseantoniorodriguesromero/anaconda3/share/psi4/basis/cc-pvtz.gbs 
    atoms 2 entry N          line   224 file /Users/joseantoniorodriguesromero/anaconda3/share/psi4/basis/cc-pvtz.gbs 

  Reading orbitals from file /tmp/scan_NO_16.default.49426.180.npy, no projection.

  ==> Integral Setup <==

  DFHelper Memory: AOs need 0.005 GiB; user supplied 0.295 GiB. 
  Using in-core AOs.

  ==> MemDFJK: Density-Fitted J/K Matrices <==

    J tasked:                   Yes
    K tasked:                   Yes
    wK tasked:                   No
    OpenMP threads:               1
    Memory [MiB]:               302
    Algorithm:                 Core
    Schwarz Cutoff:           1E-12
    Mask sparsity (%):       0.0000
    Fitting Condition:        1E-10

   => Auxiliary Basis Set <=

  Basis Set: (CC-PVTZ AUX)
    Blend: CC-PVTZ-JKFIT
    Number of shells: 50
    Number of basis functions: 158
    Number of Cartesian functions: 192
    Spherical Harmonics?: true
    Max angular momentum: 4

  Cached 100.0% of DFT collocation blocks in 0.071 [GiB].

  Minimum eigenvalue in the overlap matrix is 1.4607506328E-03.
  Reciprocal condition number of the overlap matrix is 3.5053679762E-04.
    Using symmetric orthogonalization.

  ==> Pre-Iterations <==

  SCF Guess: Orbitals guess was supplied from a previous computation.

   -------------------------------------------------------
    Irrep   Nso     Nmo     Nalpha   Nbeta   Ndocc  Nsocc
   -------------------------------------------------------
     A1        26      26       5       5       5       0
     A2         6       6       0       0       0       0
     B1        14      14       2       1       1       1
     B2        14      14       2       1       1       1
   -------------------------------------------------------
    Total      60      60       9       7       7       2
   -------------------------------------------------------

  ==> Iterations <==

                           Total Energy        Delta E     RMS |[F,P]|

   @DF-UKS iter   0:  -129.53598816089229   -1.29536e+02   1.60874e-11 
   @DF-UKS iter   1:  -129.53598816089217    1.13687e-13   1.92172e-11 DIIS
  Energy and wave function converged.


  ==> Post-Iterations <==

   Electrons on quadrature grid:
      Nalpha   =    8.9999997487 ; deviation = -2.513e-07
      Nbeta    =    6.9999998115 ; deviation = -1.885e-07
      Ntotal   =   15.9999995602 ; deviation = -4.398e-07 

   @Spin Contamination Metric:   2.602631420E-03
   @S^2 Expected:                2.000000000E+00
   @S^2 Observed:                2.002602631E+00
   @S   Expected:                1.000000000E+00
   @S   Observed:                1.000000000E+00

    Orbital Energies [Eh]
    ---------------------

    Alpha Occupied:                                                       

       1A1   -18.825461     2A1   -13.964445     3A1    -1.065152  
       4A1    -0.288237     1B2    -0.279178     1B1    -0.279178  
       5A1    -0.123796     2B1     0.283937     2B2     0.283937  

    Alpha Virtual:                                                        

       6A1     0.517130     3B1     0.686879     3B2     0.686879  
       7A1     0.717234     8A1     0.835795     4B2     0.906999  
       4B1     0.906999     9A1     1.256760     1A2     1.256761  
      10A1     1.414476    11A1     1.530612     5B1     1.639934  
       5B2     1.639934     2A2     1.955515    12A1     1.955516  
      13A1     2.298169     6B1     2.415833     6B2     2.415833  
      14A1     2.853246     7B1     3.123914     7B2     3.123914  
      15A1     3.581375    16A1     4.077073     8B2     4.112017  
       8B1     4.112017     9B2     4.201839     9B1     4.201839  
      17A1     4.276418     3A2     4.276418    10B1     4.566841  
      10B2     4.566841    18A1     4.761052     4A2     4.761053  
      19A1     5.048123    11B1     5.234995    11B2     5.234995  
      12B2     5.518896    12B1     5.518896    20A1     6.086157  
       5A2     6.514662    21A1     6.514665    22A1     6.584099  
       6A2     6.584099    13B1     6.950447    13B2     6.950447  
      23A1     7.179728    24A1     7.808800    14B1     8.430714  
      14B2     8.430714    25A1     9.414135    26A1    21.633594  

    Beta Occupied:                                                        

       1A1   -18.806316     2A1   -13.945432     3A1    -1.037825  
       4A1    -0.236267     1B2    -0.215036     1B1    -0.215036  
       5A1    -0.066561  

    Beta Virtual:                                                         

       2B1     0.431593     2B2     0.431593     6A1     0.528798  
       3B1     0.719420     3B2     0.719420     7A1     0.738135  
       8A1     0.863447     4B2     0.957918     4B1     0.957918  
       1A2     1.298561     9A1     1.298561    10A1     1.451149  
      11A1     1.549034     5B1     1.677251     5B2     1.677251  
      12A1     2.007553     2A2     2.007554    13A1     2.319700  
       6B1     2.449827     6B2     2.449827    14A1     2.886829  
       7B1     3.178598     7B2     3.178598    15A1     3.610623  
      16A1     4.104345     8B2     4.169630     8B1     4.169630  
       9B2     4.252243     9B1     4.252243    17A1     4.307797  
       3A2     4.307797    10B1     4.604262    10B2     4.604262  
      18A1     4.842343     4A2     4.842343    19A1     5.075188  
      11B1     5.267027    11B2     5.267027    12B2     5.568489  
      12B1     5.568489    20A1     6.113923     5A2     6.583746  
      21A1     6.583749    22A1     6.624084     6A2     6.624084  
      13B1     6.984468    13B2     6.984468    23A1     7.197850  
      24A1     7.831586    14B1     8.469240    14B2     8.469240  
      25A1     9.448180    26A1    21.660788  

    Final Occupation by Irrep:
             A1    A2    B1    B2 
    DOCC [     5,    0,    1,    1 ]
    SOCC [     0,    0,    1,    1 ]
    NA   [     5,    0,    2,    2 ]
    NB   [     5,    0,    1,    1 ]

  @DF-UKS Final Energy:  -129.53598816089217

   => Energetics <=

    Nuclear Repulsion Energy =             33.2635416744061772
    One-Electron Energy =                -247.4791879984280172
    Two-Electron Energy =                  97.6951988286695041
    DFT Exchange-Correlation Energy =     -13.0155406655398576
    Empirical Dispersion Energy =           0.0000000000000000
    VV10 Nonlocal Energy =                  0.0000000000000000
    Total Energy =                       -129.5359881608921739

  UHF NO Occupations:
  HONO-2 :    5 A1 1.9995680
  HONO-1 :    2 B2 1.0000000
  HONO-0 :    2 B1 1.0000000
  LUNO+0 :    6 A1 0.0004320
  LUNO+1 :    3 B2 0.0003634
  LUNO+2 :    3 B1 0.0003634
  LUNO+3 :    7 A1 0.0001357


Computation Completed


Properties will be evaluated at   0.000000,   0.000000,   0.000000 [a0]

Properties computed using the B3LYP density matrix


 Multipole Moments:

 ------------------------------------------------------------------------------------
     Multipole            Electronic (a.u.)      Nuclear  (a.u.)        Total (a.u.)
 ------------------------------------------------------------------------------------

 L = 1.  Multiply by 2.5417464519 to convert [e a0] to [Debye]
 Dipole X            :          0.0000000            0.0000000            0.0000000
 Dipole Y            :          0.0000000            0.0000000            0.0000000
 Dipole Z            :         -0.7872705           -0.0033779           -0.7906484
 Magnitude           :                                                    0.7906484

 L = 2.  Multiply by 1.3450342976 to convert [e a0^2] to [Debye ang]
 Quadrupole XX       :         -9.3692807            0.0000000           -9.3692807
 Quadrupole XY       :          0.0000000            0.0000000            0.0000000
 Quadrupole XZ       :          0.0000000            0.0000000            0.0000000
 Quadrupole YY       :         -9.3692807            0.0000000           -9.3692807
 Quadrupole YZ       :          0.0000000            0.0000000            0.0000000
 Quadrupole ZZ       :        -22.5970512           10.5812232          -12.0158279
 Traceless XX        :          4.4092568           -3.5270744            0.8821824
 Traceless YY        :          4.4092568           -3.5270744            0.8821824
 Traceless ZZ        :         -8.8185137            7.0541488           -1.7643648

 ------------------------------------------------------------------------------------
  ==> Computing MBIS Charges <==

  Electron Count from Grid (Expected Number): 16.00000 (16.00000)
  Difference: -0.00000

  MBIS Charges: (a.u.)
   Center  Symbol  Z      Pop.       Charge
      1       O    8    8.127992   -0.127992
      2       N    7    7.872007   -0.872007

  MBIS Dipoles: [e a0]
   Center  Symbol  Z        X           Y           Z
      1       O    8   -0.000000    0.000000    0.249783
      2       N    7    0.000000   -0.000000   -0.358255

  MBIS Quadrupoles: [e a0^2]
   Center  Symbol  Z      XX        XY        XZ        YY        YZ        ZZ
      1       O    8   -3.5611    0.0000    0.0000   -3.5611    0.0000   -4.0823
      2       N    7   -5.8081   -0.0000    0.0000   -5.8081   -0.0000   -6.1160

  MBIS Octupoles: [e a0^3]
   Center  Symbol  Z      XXX       XXY       XXZ       XYY       XYZ       XZZ       YYY       YYZ       YZZ       ZZZ
      1       O    8    0.0000   -0.0000    0.3824    0.0000   -0.0000    0.0000   -0.0000    0.3824   -0.0000    0.5651
      2       N    7    0.0000   -0.0000   -1.0553    0.0000   -0.0000    0.0000   -0.0000   -1.0553   -0.0000    0.1561

  MBIS Radial Moments:
   Center  Symbol  Z      [a0^2]      [a0^3]      [a0^4]      
      1       O    8   11.204624   21.087990   47.919538
      2       N    7   17.732297   42.898946   122.789364

  MBIS Valence Widths: [a0]
   Center  Symbol  Z     Width
      1       O    8    0.378371
      2       N    7    0.488964

*** tstop() called on Mac.lan at Sun Aug 10 17:45:53 2025
Module time:
	user time   =       6.14 seconds =       0.10 minutes
	system time =       2.13 seconds =       0.04 minutes
	total time  =          1 seconds =       0.02 minutes
Total time:
	user time   =     130.50 seconds =       2.17 minutes
	system time =       5.46 seconds =       0.09 minutes
	total time  =         14 seconds =       0.23 minutes

    Psi4 stopped on: Sunday, 10 August 2025 05:45PM
    Psi4 wall time for execution: 0:00:13.71

*** Psi4 exiting successfully. Buy a developer a beer!
