
    -----------------------------------------------------------------------
          Psi4: An Open-Source Ab Initio Electronic Structure Package
                               Psi4 1.9.1 release

                         Git: Rev {} zzzzzzz 


    D. G. A. Smith, L. A. Burns, A. C. Simmonett, R. M. Parrish,
    M. C. Schieber, R. Galvelis, P. Kraus, H. Kruse, R. Di Remigio,
    A. Alenaizan, A. M. James, S. Lehtola, J. P. Misiewicz, M. Scheurer,
    R. A. Shaw, J. B. Schriber, Y. Xie, Z. L. Glick, D. A. Sirianni,
    J. S. O'Brien, J. M. Waldrop, A. Kumar, E. G. Hohenstein,
    B. P. Pritchard, B. R. Brooks, H. F. Schaefer III, A. Yu. Sokolov,
    K. Patkowski, A. E. DePrince III, U. Bozkaya, R. A. King,
    F. A. Evangelista, J. M. Turney, T. D. Crawford, C. D. Sherrill,
    J. Chem. Phys. 152(18) 184108 (2020). https://doi.org/10.1063/5.0006002

                            Additional Code Authors
    E. T. Seidl, C. L. Janssen, E. F. Valeev, M. L. Leininger,
    J. F. Gonthier, R. M. Richard, H. R. McAlexander, M. Saitow, X. Wang,
    P. Verma, M. H. Lechner, A. Jiang, S. Behnle, A. G. Heide,
    M. F. Herbst, and D. L. Poole

             Previous Authors, Complete List of Code Contributors,
                       and Citations for Specific Modules
    https://github.com/psi4/psi4/blob/master/codemeta.json
    https://github.com/psi4/psi4/graphs/contributors
    http://psicode.org/psi4manual/master/introduction.html#citing-psifour

    -----------------------------------------------------------------------


    Psi4 started on: Sunday, 10 August 2025 05:26PM

    Process ID: 48812
    Host:       Mac.lan
    PSIDATADIR: /Users/joseantoniorodriguesromero/anaconda3/share/psi4
    Memory:     500.0 MiB
    Threads:    1
    
  ==> Input File <==

--------------------------------------------------------------------------
molecule { 
-1 2
H           0.000000           0.000000           0.000000
H           0.000000           0.000000           1.745542
}

set { 
basis              cc-pvtz
reference          uks
maxiter            500
DAMPING_PERCENTAGE 1
E_CONVERGENCE      1.0E-8
D_CONVERGENCE      1.0E-8
DIIS_MAX_VECS      400
MBIS_MAXITER       8000
guess              read
}

E, wfn = energy('b3lyp', restart_file='last_wfn', return_wfn=True)
properties('b3lyp','MBIS_CHARGES', wfn=wfn)
wfn.to_file('last_wfn')
--------------------------------------------------------------------------

Scratch directory: /tmp/
 Found user provided orbital data. Setting orbital guess to READ 
 Copying restart file <last_wfn.npy> to </tmp/scan_HH_50.default.48812.180.npy> for internal processing
   => Libint2 <=

    Primary   basis highest AM E, G, H:  6, 6, 3
    Auxiliary basis highest AM E, G, H:  7, 7, 4
    Onebody   basis highest AM E, G, H:  -, -, -
    Solid Harmonics ordering:            Gaussian

*** tstart() called on Mac.lan
*** at Sun Aug 10 17:26:39 2025

   => Loading Basis Set <=

    Name: CC-PVTZ
    Role: ORBITAL
    Keyword: BASIS
    atoms 1-2 entry H          line    23 file /Users/joseantoniorodriguesromero/anaconda3/share/psi4/basis/cc-pvtz.gbs 


         ---------------------------------------------------------
                                   SCF
               by Justin Turney, Rob Parrish, Andy Simmonett
                          and Daniel G. A. Smith
                              UKS Reference
                        1 Threads,    500 MiB Core
         ---------------------------------------------------------

  ==> Geometry <==

    Molecular point group: d2h
    Full point group: D_inf_h

    Geometry (in Angstrom), charge = -1, multiplicity = 2:

       Center              X                  Y                   Z               Mass       
    ------------   -----------------  -----------------  -----------------  -----------------
         H            0.000000000000     0.000000000000    -0.872771000000     1.007825032230
         H            0.000000000000     0.000000000000     0.872771000000     1.007825032230

  Running in d2h symmetry.

  Rotational constants: A = ************  B =     10.97945  C =     10.97945 [cm^-1]
  Rotational constants: A = ************  B = 329155.75137  C = 329155.75137 [MHz]
  Nuclear repulsion =    0.303159254071228

  Charge       = -1
  Multiplicity = 2
  Electrons    = 3
  Nalpha       = 2
  Nbeta        = 1

  ==> Algorithm <==

  SCF Algorithm Type is DF.
  DIIS enabled.
  MOM disabled.
  Fractional occupation disabled.
  Guess Type is READ.
  Energy threshold   = 1.00e-08
  Density threshold  = 1.00e-08
  Integral threshold = 1.00e-12

  ==> Primary Basis <==

  Basis Set: CC-PVTZ
    Blend: CC-PVTZ
    Number of shells: 12
    Number of basis functions: 28
    Number of Cartesian functions: 30
    Spherical Harmonics?: true
    Max angular momentum: 2

  ==> DFT Potential <==

   => LibXC <=

    Version 6.2.2
    S. Lehtola, C. Steigemann, M. J.T. Oliveira, and M. A.L. Marques.,  SoftwareX 7, 1–5 (2018) (10.1016/j.softx.2017.11.002)

   => Composite Functional: B3LYP <= 

    B3LYP Hyb-GGA Exchange-Correlation Functional

    P. J. Stephens, F. J. Devlin, C. F. Chabalowski, and M. J. Frisch.,  J. Phys. Chem. 98, 11623 (1994) (10.1021/j100096a001)

    Deriv               =              1
    GGA                 =           TRUE
    Meta                =          FALSE

    Exchange Hybrid     =           TRUE
    MP2 Hybrid          =          FALSE

   => Exchange Functionals <=

    0.0800   Slater exchange
    0.7200         Becke 88

   => Exact (HF) Exchange <=

    0.2000               HF 

   => Correlation Functionals <=

    0.1900   Vosko, Wilk & Nusair (VWN5_RPA)
    0.8100   Lee, Yang & Parr

   => LibXC Density Thresholds  <==

    XC_HYB_GGA_XC_B3LYP:  1.00E-15 

   => Molecular Quadrature <=

    Radial Scheme          =       TREUTLER
    Pruning Scheme         =           NONE
    Nuclear Scheme         =       TREUTLER

    Blocking Scheme        =         OCTREE
    BS radius alpha        =              1
    Pruning alpha          =              1
    Radial Points          =             75
    Spherical Points       =            302
    Total Points           =          44668
    Total Blocks           =            390
    Max Points             =            253
    Max Functions          =             28
    Weights Tolerance      =       1.00E-15

   => Loading Basis Set <=

    Name: (CC-PVTZ AUX)
    Role: JKFIT
    Keyword: DF_BASIS_SCF
    atoms 1-2 entry H          line    51 file /Users/joseantoniorodriguesromero/anaconda3/share/psi4/basis/cc-pvtz-jkfit.gbs 

   => Loading Basis Set <=

    Name: CC-PVTZ
    Role: ORBITAL
    Keyword: BASIS
    atoms 1-2 entry H          line    23 file /Users/joseantoniorodriguesromero/anaconda3/share/psi4/basis/cc-pvtz.gbs 

  Reading orbitals from file /tmp/scan_HH_50.default.48812.180.npy, no projection.

  ==> Integral Setup <==

  DFHelper Memory: AOs need 0.001 GiB; user supplied 0.330 GiB. 
  Using in-core AOs.

  ==> MemDFJK: Density-Fitted J/K Matrices <==

    J tasked:                   Yes
    K tasked:                   Yes
    wK tasked:                   No
    OpenMP threads:               1
    Memory [MiB]:               337
    Algorithm:                 Core
    Schwarz Cutoff:           1E-12
    Mask sparsity (%):       0.0000
    Fitting Condition:        1E-10

   => Auxiliary Basis Set <=

  Basis Set: (CC-PVTZ AUX)
    Blend: CC-PVTZ-JKFIT
    Number of shells: 20
    Number of basis functions: 60
    Number of Cartesian functions: 70
    Spherical Harmonics?: true
    Max angular momentum: 3

  Cached 100.0% of DFT collocation blocks in 0.036 [GiB].

  Minimum eigenvalue in the overlap matrix is 9.2138784899E-02.
  Reciprocal condition number of the overlap matrix is 3.8460184921E-02.
    Using symmetric orthogonalization.

  ==> Pre-Iterations <==

  SCF Guess: Orbitals guess was supplied from a previous computation.

   -------------------------------------------------------
    Irrep   Nso     Nmo     Nalpha   Nbeta   Ndocc  Nsocc
   -------------------------------------------------------
     Ag         7       7       1       1       1       0
     B1g        1       1       0       0       0       0
     B2g        3       3       0       0       0       0
     B3g        3       3       0       0       0       0
     Au         1       1       0       0       0       0
     B1u        7       7       1       0       0       1
     B2u        3       3       0       0       0       0
     B3u        3       3       0       0       0       0
   -------------------------------------------------------
    Total      28      28       2       1       1       1
   -------------------------------------------------------

  ==> Iterations <==

                           Total Energy        Delta E     RMS |[F,P]|

   @DF-UKS iter   0:    -1.05421720535807   -1.05422e+00   3.93393e-04 
   @DF-UKS iter   1:    -1.05577801170476   -1.56081e-03   5.17415e-05 DIIS
   @DF-UKS iter   2:    -1.05577854167714   -5.29972e-07   1.25848e-05 DIIS/DAMP=1%
   @DF-UKS iter   3:    -1.05577926815491   -7.26478e-07   3.75094e-06 DIIS/DAMP=1%
   @DF-UKS iter   4:    -1.05577838357706    8.84578e-07   6.45070e-07 DIIS/DAMP=1%
   @DF-UKS iter   5:    -1.05577859069053   -2.07113e-07   6.58238e-08 DIIS/DAMP=1%
   @DF-UKS iter   6:    -1.05577857487085    1.58197e-08   7.60694e-09 DIIS/DAMP=1%
   @DF-UKS iter   7:    -1.05577857790821   -3.03737e-09   4.98563e-10 DIIS/DAMP=1%
  Energy and wave function converged.


  ==> Post-Iterations <==

   Electrons on quadrature grid:
      Nalpha   =    1.9999999700 ; deviation = -3.005e-08
      Nbeta    =    0.9999999882 ; deviation = -1.182e-08
      Ntotal   =    2.9999999581 ; deviation = -4.186e-08 

   @Spin Contamination Metric:   6.224490444E-03
   @S^2 Expected:                7.500000000E-01
   @S^2 Observed:                7.562244904E-01
   @S   Expected:                5.000000000E-01
   @S   Observed:                5.000000000E-01

    Orbital Energies [Eh]
    ---------------------

    Alpha Occupied:                                                       

       1Ag    -0.029393     1B1u    0.086351  

    Alpha Virtual:                                                        

       2Ag     0.509878     2B1u    0.526506     1B2u    0.814090  
       1B3u    0.814090     3Ag     0.854558     1B3g    0.994786  
       1B2g    0.994786     3B1u    1.337693     4Ag     2.446191  
       4B1u    2.636456     5Ag     3.282676     2B3u    3.349054  
       2B2u    3.349054     6Ag     3.483087     1B1g    3.483090  
       5B1u    3.520356     1Au     3.520359     2B3g    3.647024  
       2B2g    3.647024     6B1u    3.816724     3B3u    3.868420  
       3B2u    3.868420     3B3g    4.004870     3B2g    4.004870  
       7Ag     4.077148     7B1u    4.669332  

    Beta Occupied:                                                        

       1Ag     0.029862  

    Beta Virtual:                                                         

       1B1u    0.201673     2Ag     0.538720     2B1u    0.575200  
       1B2u    0.843720     1B3u    0.843720     3Ag     0.890373  
       1B3g    1.037377     1B2g    1.037377     3B1u    1.381283  
       4Ag     2.523791     4B1u    2.712348     5Ag     3.326092  
       2B3u    3.397340     2B2u    3.397340     6Ag     3.533081  
       1B1g    3.533084     5B1u    3.570864     1Au     3.570866  
       2B3g    3.691529     2B2g    3.691529     6B1u    3.868374  
       3B3u    3.933606     3B2u    3.933606     3B3g    4.075215  
       3B2g    4.075215     7Ag     4.140109     7B1u    4.727591  

    Final Occupation by Irrep:
             Ag   B1g   B2g   B3g    Au   B1u   B2u   B3u 
    DOCC [     1,    0,    0,    0,    0,    0,    0,    0 ]
    SOCC [     0,    0,    0,    0,    0,    1,    0,    0 ]
    NA   [     1,    0,    0,    0,    0,    1,    0,    0 ]
    NB   [     1,    0,    0,    0,    0,    0,    0,    0 ]

  @DF-UKS Final Energy:    -1.05577857790821

   => Energetics <=

    Nuclear Repulsion Energy =              0.3031592540712282
    One-Electron Energy =                  -2.3230821826171253
    Two-Electron Energy =                   1.6265487832219929
    DFT Exchange-Correlation Energy =      -0.6624044325843091
    Empirical Dispersion Energy =           0.0000000000000000
    VV10 Nonlocal Energy =                  0.0000000000000000
    Total Energy =                         -1.0557785779082134

  UHF NO Occupations:
  HONO-1 :    1 Ag 1.9968829
  HONO-0 :    1B1u 1.0000000
  LUNO+0 :    2 Ag 0.0031171
  LUNO+1 :    3 Ag 0.0000000
  LUNO+2 :    4 Ag 0.0000000
  LUNO+3 :    2B1u 0.0000000


Computation Completed


Properties will be evaluated at   0.000000,   0.000000,   0.000000 [a0]

Properties computed using the SCF density matrix


 Multipole Moments:

 ------------------------------------------------------------------------------------
     Multipole            Electronic (a.u.)      Nuclear  (a.u.)        Total (a.u.)
 ------------------------------------------------------------------------------------

 L = 1.  Multiply by 2.5417464519 to convert [e a0] to [Debye]
 Dipole X            :          0.0000000            0.0000000            0.0000000
 Dipole Y            :          0.0000000            0.0000000            0.0000000
 Dipole Z            :          0.0000000            0.0000000            0.0000000
 Magnitude           :                                                    0.0000000

 ------------------------------------------------------------------------------------

*** tstop() called on Mac.lan at Sun Aug 10 17:26:40 2025
Module time:
	user time   =       0.78 seconds =       0.01 minutes
	system time =       2.16 seconds =       0.04 minutes
	total time  =          1 seconds =       0.02 minutes
Total time:
	user time   =       0.78 seconds =       0.01 minutes
	system time =       2.16 seconds =       0.04 minutes
	total time  =          1 seconds =       0.02 minutes

*** tstart() called on Mac.lan
*** at Sun Aug 10 17:26:40 2025

   => Libint2 <=

    Primary   basis highest AM E, G, H:  6, 6, 3
    Auxiliary basis highest AM E, G, H:  7, 7, 4
    Onebody   basis highest AM E, G, H:  -, -, -
    Solid Harmonics ordering:            Gaussian
   => Loading Basis Set <=

    Name: CC-PVTZ
    Role: ORBITAL
    Keyword: BASIS
    atoms 1-2 entry H          line    23 file /Users/joseantoniorodriguesromero/anaconda3/share/psi4/basis/cc-pvtz.gbs 


         ---------------------------------------------------------
                                   SCF
               by Justin Turney, Rob Parrish, Andy Simmonett
                          and Daniel G. A. Smith
                              UKS Reference
                        1 Threads,    500 MiB Core
         ---------------------------------------------------------

  ==> Geometry <==

    Molecular point group: d2h
    Full point group: D_inf_h

    Geometry (in Angstrom), charge = -1, multiplicity = 2:

       Center              X                  Y                   Z               Mass       
    ------------   -----------------  -----------------  -----------------  -----------------
         H            0.000000000000     0.000000000000    -0.872771000000     1.007825032230
         H            0.000000000000     0.000000000000     0.872771000000     1.007825032230

  Running in d2h symmetry.

  Rotational constants: A = ************  B =     10.97945  C =     10.97945 [cm^-1]
  Rotational constants: A = ************  B = 329155.75137  C = 329155.75137 [MHz]
  Nuclear repulsion =    0.303159254071228

  Charge       = -1
  Multiplicity = 2
  Electrons    = 3
  Nalpha       = 2
  Nbeta        = 1

  ==> Algorithm <==

  SCF Algorithm Type is DF.
  DIIS enabled.
  MOM disabled.
  Fractional occupation disabled.
  Guess Type is READ.
  Energy threshold   = 1.00e-08
  Density threshold  = 1.00e-08
  Integral threshold = 1.00e-12

  ==> Primary Basis <==

  Basis Set: CC-PVTZ
    Blend: CC-PVTZ
    Number of shells: 12
    Number of basis functions: 28
    Number of Cartesian functions: 30
    Spherical Harmonics?: true
    Max angular momentum: 2

  ==> DFT Potential <==

   => LibXC <=

    Version 6.2.2
    S. Lehtola, C. Steigemann, M. J.T. Oliveira, and M. A.L. Marques.,  SoftwareX 7, 1–5 (2018) (10.1016/j.softx.2017.11.002)

   => Composite Functional: B3LYP <= 

    B3LYP Hyb-GGA Exchange-Correlation Functional

    P. J. Stephens, F. J. Devlin, C. F. Chabalowski, and M. J. Frisch.,  J. Phys. Chem. 98, 11623 (1994) (10.1021/j100096a001)

    Deriv               =              1
    GGA                 =           TRUE
    Meta                =          FALSE

    Exchange Hybrid     =           TRUE
    MP2 Hybrid          =          FALSE

   => Exchange Functionals <=

    0.0800   Slater exchange
    0.7200         Becke 88

   => Exact (HF) Exchange <=

    0.2000               HF 

   => Correlation Functionals <=

    0.1900   Vosko, Wilk & Nusair (VWN5_RPA)
    0.8100   Lee, Yang & Parr

   => LibXC Density Thresholds  <==

    XC_HYB_GGA_XC_B3LYP:  1.00E-15 

   => Molecular Quadrature <=

    Radial Scheme          =       TREUTLER
    Pruning Scheme         =           NONE
    Nuclear Scheme         =       TREUTLER

    Blocking Scheme        =         OCTREE
    BS radius alpha        =              1
    Pruning alpha          =              1
    Radial Points          =             75
    Spherical Points       =            302
    Total Points           =          44668
    Total Blocks           =            390
    Max Points             =            253
    Max Functions          =             28
    Weights Tolerance      =       1.00E-15

   => Loading Basis Set <=

    Name: (CC-PVTZ AUX)
    Role: JKFIT
    Keyword: DF_BASIS_SCF
    atoms 1-2 entry H          line    51 file /Users/joseantoniorodriguesromero/anaconda3/share/psi4/basis/cc-pvtz-jkfit.gbs 

   => Loading Basis Set <=

    Name: CC-PVTZ
    Role: ORBITAL
    Keyword: BASIS
    atoms 1-2 entry H          line    23 file /Users/joseantoniorodriguesromero/anaconda3/share/psi4/basis/cc-pvtz.gbs 

  Reading orbitals from file /tmp/scan_HH_50.default.48812.180.npy, no projection.

  ==> Integral Setup <==

  DFHelper Memory: AOs need 0.001 GiB; user supplied 0.330 GiB. 
  Using in-core AOs.

  ==> MemDFJK: Density-Fitted J/K Matrices <==

    J tasked:                   Yes
    K tasked:                   Yes
    wK tasked:                   No
    OpenMP threads:               1
    Memory [MiB]:               337
    Algorithm:                 Core
    Schwarz Cutoff:           1E-12
    Mask sparsity (%):       0.0000
    Fitting Condition:        1E-10

   => Auxiliary Basis Set <=

  Basis Set: (CC-PVTZ AUX)
    Blend: CC-PVTZ-JKFIT
    Number of shells: 20
    Number of basis functions: 60
    Number of Cartesian functions: 70
    Spherical Harmonics?: true
    Max angular momentum: 3

  Cached 100.0% of DFT collocation blocks in 0.036 [GiB].

  Minimum eigenvalue in the overlap matrix is 9.2138784899E-02.
  Reciprocal condition number of the overlap matrix is 3.8460184921E-02.
    Using symmetric orthogonalization.

  ==> Pre-Iterations <==

  SCF Guess: Orbitals guess was supplied from a previous computation.

   -------------------------------------------------------
    Irrep   Nso     Nmo     Nalpha   Nbeta   Ndocc  Nsocc
   -------------------------------------------------------
     Ag         7       7       1       1       1       0
     B1g        1       1       0       0       0       0
     B2g        3       3       0       0       0       0
     B3g        3       3       0       0       0       0
     Au         1       1       0       0       0       0
     B1u        7       7       1       0       0       1
     B2u        3       3       0       0       0       0
     B3u        3       3       0       0       0       0
   -------------------------------------------------------
    Total      28      28       2       1       1       1
   -------------------------------------------------------

  ==> Iterations <==

                           Total Energy        Delta E     RMS |[F,P]|

   @DF-UKS iter   0:    -1.05577857764304   -1.05578e+00   4.45582e-11 
   @DF-UKS iter   1:    -1.05577857764304   -6.66134e-16   1.33530e-11 DIIS
  Energy and wave function converged.


  ==> Post-Iterations <==

   Electrons on quadrature grid:
      Nalpha   =    1.9999999700 ; deviation = -3.005e-08
      Nbeta    =    0.9999999882 ; deviation = -1.182e-08
      Ntotal   =    2.9999999581 ; deviation = -4.186e-08 

   @Spin Contamination Metric:   6.224490440E-03
   @S^2 Expected:                7.500000000E-01
   @S^2 Observed:                7.562244904E-01
   @S   Expected:                5.000000000E-01
   @S   Observed:                5.000000000E-01

    Orbital Energies [Eh]
    ---------------------

    Alpha Occupied:                                                       

       1Ag    -0.029393     1B1u    0.086351  

    Alpha Virtual:                                                        

       2Ag     0.509878     2B1u    0.526506     1B2u    0.814090  
       1B3u    0.814090     3Ag     0.854558     1B3g    0.994786  
       1B2g    0.994786     3B1u    1.337693     4Ag     2.446191  
       4B1u    2.636456     5Ag     3.282676     2B3u    3.349054  
       2B2u    3.349054     6Ag     3.483087     1B1g    3.483090  
       5B1u    3.520356     1Au     3.520359     2B3g    3.647024  
       2B2g    3.647024     6B1u    3.816724     3B3u    3.868420  
       3B2u    3.868420     3B3g    4.004870     3B2g    4.004870  
       7Ag     4.077148     7B1u    4.669332  

    Beta Occupied:                                                        

       1Ag     0.029862  

    Beta Virtual:                                                         

       1B1u    0.201673     2Ag     0.538720     2B1u    0.575200  
       1B2u    0.843720     1B3u    0.843720     3Ag     0.890373  
       1B3g    1.037377     1B2g    1.037377     3B1u    1.381283  
       4Ag     2.523791     4B1u    2.712348     5Ag     3.326092  
       2B3u    3.397340     2B2u    3.397340     6Ag     3.533081  
       1B1g    3.533084     5B1u    3.570864     1Au     3.570866  
       2B3g    3.691529     2B2g    3.691529     6B1u    3.868374  
       3B3u    3.933606     3B2u    3.933606     3B3g    4.075215  
       3B2g    4.075215     7Ag     4.140109     7B1u    4.727591  

    Final Occupation by Irrep:
             Ag   B1g   B2g   B3g    Au   B1u   B2u   B3u 
    DOCC [     1,    0,    0,    0,    0,    0,    0,    0 ]
    SOCC [     0,    0,    0,    0,    0,    1,    0,    0 ]
    NA   [     1,    0,    0,    0,    0,    1,    0,    0 ]
    NB   [     1,    0,    0,    0,    0,    0,    0,    0 ]

  @DF-UKS Final Energy:    -1.05577857764304

   => Energetics <=

    Nuclear Repulsion Energy =              0.3031592540712282
    One-Electron Energy =                  -2.3230821853926216
    Two-Electron Energy =                   1.6265487889782910
    DFT Exchange-Correlation Energy =      -0.6624044352999414
    Empirical Dispersion Energy =           0.0000000000000000
    VV10 Nonlocal Energy =                  0.0000000000000000
    Total Energy =                         -1.0557785776430439

  UHF NO Occupations:
  HONO-1 :    1 Ag 1.9968829
  HONO-0 :    1B1u 1.0000000
  LUNO+0 :    2 Ag 0.0031171
  LUNO+1 :    3 Ag 0.0000000
  LUNO+2 :    4 Ag 0.0000000
  LUNO+3 :    2B1u 0.0000000


Computation Completed


Properties will be evaluated at   0.000000,   0.000000,   0.000000 [a0]

Properties computed using the B3LYP density matrix


 Multipole Moments:

 ------------------------------------------------------------------------------------
     Multipole            Electronic (a.u.)      Nuclear  (a.u.)        Total (a.u.)
 ------------------------------------------------------------------------------------

 L = 1.  Multiply by 2.5417464519 to convert [e a0] to [Debye]
 Dipole X            :          0.0000000            0.0000000            0.0000000
 Dipole Y            :          0.0000000            0.0000000            0.0000000
 Dipole Z            :          0.0000000            0.0000000            0.0000000
 Magnitude           :                                                    0.0000000

 L = 2.  Multiply by 1.3450342976 to convert [e a0^2] to [Debye ang]
 Quadrupole XX       :         -4.4032450            0.0000000           -4.4032450
 Quadrupole XY       :          0.0000000            0.0000000            0.0000000
 Quadrupole XZ       :          0.0000000            0.0000000            0.0000000
 Quadrupole YY       :         -4.4032450            0.0000000           -4.4032450
 Quadrupole YZ       :          0.0000000            0.0000000            0.0000000
 Quadrupole ZZ       :        -13.4552419            5.4403688           -8.0148730
 Traceless XX        :          3.0173323           -1.8134563            1.2038760
 Traceless YY        :          3.0173323           -1.8134563            1.2038760
 Traceless ZZ        :         -6.0346646            3.6269126           -2.4077520

 ------------------------------------------------------------------------------------
  ==> Computing MBIS Charges <==

  Electron Count from Grid (Expected Number):  3.00000 ( 3.00000)
  Difference: -0.00000

  MBIS Charges: (a.u.)
   Center  Symbol  Z      Pop.       Charge
      1       H    1    1.500000   -0.500000
      2       H    1    1.500000   -0.500000

  MBIS Dipoles: [e a0]
   Center  Symbol  Z        X           Y           Z
      1       H    1    0.000000   -0.000000    0.108568
      2       H    1   -0.000000    0.000000   -0.108568

  MBIS Quadrupoles: [e a0^2]
   Center  Symbol  Z      XX        XY        XZ        YY        YZ        ZZ
      1       H    1   -2.2016    0.0000    0.0000   -2.2016    0.0000   -2.2892
      2       H    1   -2.2016    0.0000   -0.0000   -2.2016   -0.0000   -2.2892

  MBIS Octupoles: [e a0^3]
   Center  Symbol  Z      XXX       XXY       XXZ       XYY       XYZ       XZZ       YYY       YYZ       YZZ       ZZZ
      1       H    1   -0.0000   -0.0000    0.1665    0.0000    0.0000   -0.0000   -0.0000    0.1665   -0.0000    0.2919
      2       H    1    0.0000   -0.0000   -0.1665    0.0000   -0.0000   -0.0000   -0.0000   -0.1665   -0.0000   -0.2919

  MBIS Radial Moments:
   Center  Symbol  Z      [a0^2]      [a0^3]      [a0^4]      
      1       H    1    6.692468   19.930426   69.005528
      2       H    1    6.692468   19.930426   69.005528

  MBIS Valence Widths: [a0]
   Center  Symbol  Z     Width
      1       H    1    0.610503
      2       H    1    0.610503

*** tstop() called on Mac.lan at Sun Aug 10 17:26:40 2025
Module time:
	user time   =       0.87 seconds =       0.01 minutes
	system time =       0.94 seconds =       0.02 minutes
	total time  =          0 seconds =       0.00 minutes
Total time:
	user time   =       1.67 seconds =       0.03 minutes
	system time =       3.10 seconds =       0.05 minutes
	total time  =          1 seconds =       0.02 minutes

    Psi4 stopped on: Sunday, 10 August 2025 05:26PM
    Psi4 wall time for execution: 0:00:00.68

*** Psi4 exiting successfully. Buy a developer a beer!
