
    -----------------------------------------------------------------------
          Psi4: An Open-Source Ab Initio Electronic Structure Package
                               Psi4 1.9.1 release

                         Git: Rev {} zzzzzzz 


    D. G. A. Smith, L. A. Burns, A. C. Simmonett, R. M. Parrish,
    M. C. Schieber, R. Galvelis, P. Kraus, H. Kruse, R. Di Remigio,
    A. Alenaizan, A. M. James, S. Lehtola, J. P. Misiewicz, M. Scheurer,
    R. A. Shaw, J. B. Schriber, Y. Xie, Z. L. Glick, D. A. Sirianni,
    J. S. O'Brien, J. M. Waldrop, A. Kumar, E. G. Hohenstein,
    B. P. Pritchard, B. R. Brooks, H. F. Schaefer III, A. Yu. Sokolov,
    K. Patkowski, A. E. DePrince III, U. Bozkaya, R. A. King,
    F. A. Evangelista, J. M. Turney, T. D. Crawford, C. D. Sherrill,
    J. Chem. Phys. 152(18) 184108 (2020). https://doi.org/10.1063/5.0006002

                            Additional Code Authors
    E. T. Seidl, C. L. Janssen, E. F. Valeev, M. L. Leininger,
    J. F. Gonthier, R. M. Richard, H. R. McAlexander, M. Saitow, X. Wang,
    P. Verma, M. H. Lechner, A. Jiang, S. Behnle, A. G. Heide,
    M. F. Herbst, and D. L. Poole

             Previous Authors, Complete List of Code Contributors,
                       and Citations for Specific Modules
    https://github.com/psi4/psi4/blob/master/codemeta.json
    https://github.com/psi4/psi4/graphs/contributors
    http://psicode.org/psi4manual/master/introduction.html#citing-psifour

    -----------------------------------------------------------------------


    Psi4 started on: Sunday, 10 August 2025 05:47PM

    Process ID: 49479
    Host:       Mac.lan
    PSIDATADIR: /Users/joseantoniorodriguesromero/anaconda3/share/psi4
    Memory:     500.0 MiB
    Threads:    1
    
  ==> Input File <==

--------------------------------------------------------------------------
molecule { 
-1 3
O           0.000000           0.000000           0.000000
N           0.000000           0.000000           1.873702
}

set { 
basis              cc-pvtz
reference          uks
maxiter            500
DAMPING_PERCENTAGE 1
E_CONVERGENCE      1.0E-8
D_CONVERGENCE      1.0E-8
DIIS_MAX_VECS      400
MBIS_MAXITER       8000
guess              read
}

E, wfn = energy('b3lyp', restart_file='last_wfn', return_wfn=True)
properties('b3lyp','MBIS_CHARGES', wfn=wfn)
wfn.to_file('last_wfn')
--------------------------------------------------------------------------

Scratch directory: /tmp/
 Found user provided orbital data. Setting orbital guess to READ 
 Copying restart file <last_wfn.npy> to </tmp/scan_NO_49.default.49479.180.npy> for internal processing
   => Libint2 <=

    Primary   basis highest AM E, G, H:  6, 6, 3
    Auxiliary basis highest AM E, G, H:  7, 7, 4
    Onebody   basis highest AM E, G, H:  -, -, -
    Solid Harmonics ordering:            Gaussian

*** tstart() called on Mac.lan
*** at Sun Aug 10 17:47:42 2025

   => Loading Basis Set <=

    Name: CC-PVTZ
    Role: ORBITAL
    Keyword: BASIS
    atoms 1 entry O          line   262 file /Users/joseantoniorodriguesromero/anaconda3/share/psi4/basis/cc-pvtz.gbs 
    atoms 2 entry N          line   224 file /Users/joseantoniorodriguesromero/anaconda3/share/psi4/basis/cc-pvtz.gbs 


         ---------------------------------------------------------
                                   SCF
               by Justin Turney, Rob Parrish, Andy Simmonett
                          and Daniel G. A. Smith
                              UKS Reference
                        1 Threads,    500 MiB Core
         ---------------------------------------------------------

  ==> Geometry <==

    Molecular point group: c2v
    Full point group: C_inf_v

    Geometry (in Angstrom), charge = -1, multiplicity = 3:

       Center              X                  Y                   Z               Mass       
    ------------   -----------------  -----------------  -----------------  -----------------
         O            0.000000000000     0.000000000000    -0.874644900267    15.994914619570
         N            0.000000000000     0.000000000000     0.999057099733    14.003074004430

  Running in c2v symmetry.

  Rotational constants: A = ************  B =      0.64311  C =      0.64311 [cm^-1]
  Rotational constants: A = ************  B =  19279.82043  C =  19279.82043 [MHz]
  Nuclear repulsion =   15.815708046167428

  Charge       = -1
  Multiplicity = 3
  Electrons    = 16
  Nalpha       = 9
  Nbeta        = 7

  ==> Algorithm <==

  SCF Algorithm Type is DF.
  DIIS enabled.
  MOM disabled.
  Fractional occupation disabled.
  Guess Type is READ.
  Energy threshold   = 1.00e-08
  Density threshold  = 1.00e-08
  Integral threshold = 1.00e-12

  ==> Primary Basis <==

  Basis Set: CC-PVTZ
    Blend: CC-PVTZ
    Number of shells: 20
    Number of basis functions: 60
    Number of Cartesian functions: 70
    Spherical Harmonics?: true
    Max angular momentum: 3

  ==> DFT Potential <==

   => LibXC <=

    Version 6.2.2
    S. Lehtola, C. Steigemann, M. J.T. Oliveira, and M. A.L. Marques.,  SoftwareX 7, 1–5 (2018) (10.1016/j.softx.2017.11.002)

   => Composite Functional: B3LYP <= 

    B3LYP Hyb-GGA Exchange-Correlation Functional

    P. J. Stephens, F. J. Devlin, C. F. Chabalowski, and M. J. Frisch.,  J. Phys. Chem. 98, 11623 (1994) (10.1021/j100096a001)

    Deriv               =              1
    GGA                 =           TRUE
    Meta                =          FALSE

    Exchange Hybrid     =           TRUE
    MP2 Hybrid          =          FALSE

   => Exchange Functionals <=

    0.0800   Slater exchange
    0.7200         Becke 88

   => Exact (HF) Exchange <=

    0.2000               HF 

   => Correlation Functionals <=

    0.1900   Vosko, Wilk & Nusair (VWN5_RPA)
    0.8100   Lee, Yang & Parr

   => LibXC Density Thresholds  <==

    XC_HYB_GGA_XC_B3LYP:  1.00E-15 

   => Molecular Quadrature <=

    Radial Scheme          =       TREUTLER
    Pruning Scheme         =           NONE
    Nuclear Scheme         =       TREUTLER

    Blocking Scheme        =         OCTREE
    BS radius alpha        =              1
    Pruning alpha          =              1
    Radial Points          =             75
    Spherical Points       =            302
    Total Points           =          42800
    Total Blocks           =            386
    Max Points             =            255
    Max Functions          =             60
    Weights Tolerance      =       1.00E-15

   => Loading Basis Set <=

    Name: (CC-PVTZ AUX)
    Role: JKFIT
    Keyword: DF_BASIS_SCF
    atoms 1 entry O          line   229 file /Users/joseantoniorodriguesromero/anaconda3/share/psi4/basis/cc-pvtz-jkfit.gbs 
    atoms 2 entry N          line   177 file /Users/joseantoniorodriguesromero/anaconda3/share/psi4/basis/cc-pvtz-jkfit.gbs 

   => Loading Basis Set <=

    Name: CC-PVTZ
    Role: ORBITAL
    Keyword: BASIS
    atoms 1 entry O          line   262 file /Users/joseantoniorodriguesromero/anaconda3/share/psi4/basis/cc-pvtz.gbs 
    atoms 2 entry N          line   224 file /Users/joseantoniorodriguesromero/anaconda3/share/psi4/basis/cc-pvtz.gbs 

  Reading orbitals from file /tmp/scan_NO_49.default.49479.180.npy, no projection.

  ==> Integral Setup <==

  DFHelper Memory: AOs need 0.005 GiB; user supplied 0.297 GiB. 
  Using in-core AOs.

  ==> MemDFJK: Density-Fitted J/K Matrices <==

    J tasked:                   Yes
    K tasked:                   Yes
    wK tasked:                   No
    OpenMP threads:               1
    Memory [MiB]:               303
    Algorithm:                 Core
    Schwarz Cutoff:           1E-12
    Mask sparsity (%):       0.0000
    Fitting Condition:        1E-10

   => Auxiliary Basis Set <=

  Basis Set: (CC-PVTZ AUX)
    Blend: CC-PVTZ-JKFIT
    Number of shells: 50
    Number of basis functions: 158
    Number of Cartesian functions: 192
    Spherical Harmonics?: true
    Max angular momentum: 4

  Cached 100.0% of DFT collocation blocks in 0.069 [GiB].

  Minimum eigenvalue in the overlap matrix is 1.8782347327E-02.
  Reciprocal condition number of the overlap matrix is 6.1660829872E-03.
    Using symmetric orthogonalization.

  ==> Pre-Iterations <==

  SCF Guess: Orbitals guess was supplied from a previous computation.

   -------------------------------------------------------
    Irrep   Nso     Nmo     Nalpha   Nbeta   Ndocc  Nsocc
   -------------------------------------------------------
     A1        26      26       5       5       5       0
     A2         6       6       0       0       0       0
     B1        14      14       2       1       1       1
     B2        14      14       2       1       1       1
   -------------------------------------------------------
    Total      60      60       9       7       7       2
   -------------------------------------------------------

  ==> Iterations <==

                           Total Energy        Delta E     RMS |[F,P]|

   @DF-UKS iter   0:  -129.80326133232441   -1.29803e+02   8.49911e-04 
   @DF-UKS iter   1:  -129.80691931032365   -3.65798e-03   4.82473e-04 DIIS/ADIIS
   @DF-UKS iter   2:  -129.80577159221031    1.14772e-03   1.64673e-03 DIIS/ADIIS/DAMP=1%
   @DF-UKS iter   3:  -129.80619837552726   -4.26783e-04   4.98901e-04 DIIS/ADIIS/DAMP=1%
   @DF-UKS iter   4:  -129.80705026436479   -8.51889e-04   5.50736e-05 DIIS/DAMP=1%
   @DF-UKS iter   5:  -129.80707700377801   -2.67394e-05   5.66964e-05 DIIS/DAMP=1%
   @DF-UKS iter   6:  -129.80706616752369    1.08363e-05   2.79457e-05 DIIS/DAMP=1%
   @DF-UKS iter   7:  -129.80711247788426   -4.63104e-05   3.13897e-05 DIIS/DAMP=1%
   @DF-UKS iter   8:  -129.80709061246890    2.18654e-05   2.75202e-06 DIIS/DAMP=1%
   @DF-UKS iter   9:  -129.80710039117395   -9.77871e-06   7.56133e-07 DIIS/DAMP=1%
   @DF-UKS iter  10:  -129.80710097129287   -5.80119e-07   1.81674e-07 DIIS/DAMP=1%
   @DF-UKS iter  11:  -129.80710106360360   -9.23107e-08   5.31652e-08 DIIS/DAMP=1%
   @DF-UKS iter  12:  -129.80710106945375   -5.85015e-09   3.25167e-09 DIIS/DAMP=1%
  Energy and wave function converged.


  ==> Post-Iterations <==

   Electrons on quadrature grid:
      Nalpha   =    9.0000001299 ; deviation = 1.299e-07
      Nbeta    =    7.0000003282 ; deviation = 3.282e-07
      Ntotal   =   16.0000004581 ; deviation = 4.581e-07 

   @Spin Contamination Metric:   8.090187727E-02
   @S^2 Expected:                2.000000000E+00
   @S^2 Observed:                2.080901877E+00
   @S   Expected:                1.000000000E+00
   @S   Observed:                1.000000000E+00

    Orbital Energies [Eh]
    ---------------------

    Alpha Occupied:                                                       

       1A1   -18.833487     2A1   -14.130465     3A1    -0.582320  
       4A1    -0.460412     1B2    -0.058519     1B1    -0.058519  
       5A1    -0.049873     2B2     0.024763     2B1     0.024763  

    Alpha Virtual:                                                        

       6A1     0.215176     7A1     0.676186     3B1     0.693890  
       3B2     0.693890     8A1     0.821926     4B1     0.897353  
       4B2     0.897353     9A1     0.914304     1A2     1.272360  
      10A1     1.272360     5B2     1.284328     5B1     1.284328  
      11A1     1.299744    12A1     1.551842     2A2     1.804395  
      13A1     1.804397     6B2     1.958004     6B1     1.958004  
      14A1     2.301512     7B1     3.052022     7B2     3.052022  
      15A1     3.231009    16A1     3.820740     8B1     3.919510  
       8B2     3.919510     9B2     4.114379     9B1     4.114379  
      17A1     4.124433     3A2     4.124434    10B1     4.156485  
      10B2     4.156485    18A1     4.366075     4A2     4.634915  
      19A1     4.634939    11B1     4.700458    11B2     4.700458  
      20A1     4.993059     5A2     5.461467    21A1     5.461478  
      12B2     5.464515    12B1     5.464515    13B1     5.550134  
      13B2     5.550134    22A1     5.669486    23A1     5.783697  
      24A1     6.512799     6A2     6.512844    14B1     6.636144  
      14B2     6.636144    25A1     6.950620    26A1     8.108320  

    Beta Occupied:                                                        

       1A1   -18.829408     2A1   -14.091436     3A1    -0.563566  
       4A1    -0.347464     5A1    -0.034026     1B2     0.027556  
       1B1     0.027556  

    Beta Virtual:                                                         

       2B2     0.176562     2B1     0.176562     6A1     0.238798  
       7A1     0.708133     3B1     0.760992     3B2     0.760992  
       8A1     0.848667     4B1     0.914281     4B2     0.914281  
       9A1     0.922352    10A1     1.314438     5B2     1.323364  
       5B1     1.323364    11A1     1.349955     1A2     1.349955  
      12A1     1.573273     2A2     1.821828    13A1     1.821829  
       6B2     1.966554     6B1     1.966554    14A1     2.317030  
       7B1     3.151755     7B2     3.151755    15A1     3.272023  
      16A1     3.827321     8B1     3.941666     8B2     3.941666  
      17A1     4.205582     3A2     4.205584     9B2     4.219422  
       9B1     4.219422    10B1     4.221364    10B2     4.221364  
      18A1     4.413017     4A2     4.777750    19A1     4.777772  
      11B1     4.794097    11B2     4.794097    20A1     5.039229  
       5A2     5.466900    21A1     5.466910    12B2     5.489271  
      12B1     5.489271    13B1     5.547351    13B2     5.547351  
      22A1     5.725879    23A1     5.803064    24A1     6.547821  
       6A2     6.547865    14B1     6.634608    14B2     6.634608  
      25A1     6.927407    26A1     8.123503  

    Final Occupation by Irrep:
             A1    A2    B1    B2 
    DOCC [     5,    0,    1,    1 ]
    SOCC [     0,    0,    1,    1 ]
    NA   [     5,    0,    2,    2 ]
    NB   [     5,    0,    1,    1 ]

  @DF-UKS Final Energy:  -129.80710106945375

   => Energetics <=

    Nuclear Repulsion Energy =             15.8157080461674280
    One-Electron Energy =                -214.3100773605975178
    Two-Electron Energy =                  81.1988341509256628
    DFT Exchange-Correlation Energy =     -12.5115659059493147
    Empirical Dispersion Energy =           0.0000000000000000
    VV10 Nonlocal Energy =                  0.0000000000000000
    Total Energy =                       -129.8071010694537506

  UHF NO Occupations:
  HONO-2 :    5 A1 1.9622532
  HONO-1 :    2 B1 1.0000000
  HONO-0 :    2 B2 1.0000000
  LUNO+0 :    6 A1 0.0377468
  LUNO+1 :    3 B1 0.0012798
  LUNO+2 :    3 B2 0.0012798
  LUNO+3 :    7 A1 0.0007590


Computation Completed


Properties will be evaluated at   0.000000,   0.000000,   0.000000 [a0]

Properties computed using the SCF density matrix


 Multipole Moments:

 ------------------------------------------------------------------------------------
     Multipole            Electronic (a.u.)      Nuclear  (a.u.)        Total (a.u.)
 ------------------------------------------------------------------------------------

 L = 1.  Multiply by 2.5417464519 to convert [e a0] to [Debye]
 Dipole X            :          0.0000000            0.0000000            0.0000000
 Dipole Y            :          0.0000000            0.0000000            0.0000000
 Dipole Z            :          0.3104846           -0.0071044            0.3033802
 Magnitude           :                                                    0.3033802

 ------------------------------------------------------------------------------------

*** tstop() called on Mac.lan at Sun Aug 10 17:47:44 2025
Module time:
	user time   =      14.78 seconds =       0.25 minutes
	system time =       2.10 seconds =       0.04 minutes
	total time  =          2 seconds =       0.03 minutes
Total time:
	user time   =      14.78 seconds =       0.25 minutes
	system time =       2.10 seconds =       0.04 minutes
	total time  =          2 seconds =       0.03 minutes

*** tstart() called on Mac.lan
*** at Sun Aug 10 17:47:44 2025

   => Libint2 <=

    Primary   basis highest AM E, G, H:  6, 6, 3
    Auxiliary basis highest AM E, G, H:  7, 7, 4
    Onebody   basis highest AM E, G, H:  -, -, -
    Solid Harmonics ordering:            Gaussian
   => Loading Basis Set <=

    Name: CC-PVTZ
    Role: ORBITAL
    Keyword: BASIS
    atoms 1 entry O          line   262 file /Users/joseantoniorodriguesromero/anaconda3/share/psi4/basis/cc-pvtz.gbs 
    atoms 2 entry N          line   224 file /Users/joseantoniorodriguesromero/anaconda3/share/psi4/basis/cc-pvtz.gbs 


         ---------------------------------------------------------
                                   SCF
               by Justin Turney, Rob Parrish, Andy Simmonett
                          and Daniel G. A. Smith
                              UKS Reference
                        1 Threads,    500 MiB Core
         ---------------------------------------------------------

  ==> Geometry <==

    Molecular point group: c2v
    Full point group: C_inf_v

    Geometry (in Angstrom), charge = -1, multiplicity = 3:

       Center              X                  Y                   Z               Mass       
    ------------   -----------------  -----------------  -----------------  -----------------
         O            0.000000000000     0.000000000000    -0.874644900267    15.994914619570
         N            0.000000000000     0.000000000000     0.999057099733    14.003074004430

  Running in c2v symmetry.

  Rotational constants: A = ************  B =      0.64311  C =      0.64311 [cm^-1]
  Rotational constants: A = ************  B =  19279.82043  C =  19279.82043 [MHz]
  Nuclear repulsion =   15.815708046167428

  Charge       = -1
  Multiplicity = 3
  Electrons    = 16
  Nalpha       = 9
  Nbeta        = 7

  ==> Algorithm <==

  SCF Algorithm Type is DF.
  DIIS enabled.
  MOM disabled.
  Fractional occupation disabled.
  Guess Type is READ.
  Energy threshold   = 1.00e-08
  Density threshold  = 1.00e-08
  Integral threshold = 1.00e-12

  ==> Primary Basis <==

  Basis Set: CC-PVTZ
    Blend: CC-PVTZ
    Number of shells: 20
    Number of basis functions: 60
    Number of Cartesian functions: 70
    Spherical Harmonics?: true
    Max angular momentum: 3

  ==> DFT Potential <==

   => LibXC <=

    Version 6.2.2
    S. Lehtola, C. Steigemann, M. J.T. Oliveira, and M. A.L. Marques.,  SoftwareX 7, 1–5 (2018) (10.1016/j.softx.2017.11.002)

   => Composite Functional: B3LYP <= 

    B3LYP Hyb-GGA Exchange-Correlation Functional

    P. J. Stephens, F. J. Devlin, C. F. Chabalowski, and M. J. Frisch.,  J. Phys. Chem. 98, 11623 (1994) (10.1021/j100096a001)

    Deriv               =              1
    GGA                 =           TRUE
    Meta                =          FALSE

    Exchange Hybrid     =           TRUE
    MP2 Hybrid          =          FALSE

   => Exchange Functionals <=

    0.0800   Slater exchange
    0.7200         Becke 88

   => Exact (HF) Exchange <=

    0.2000               HF 

   => Correlation Functionals <=

    0.1900   Vosko, Wilk & Nusair (VWN5_RPA)
    0.8100   Lee, Yang & Parr

   => LibXC Density Thresholds  <==

    XC_HYB_GGA_XC_B3LYP:  1.00E-15 

   => Molecular Quadrature <=

    Radial Scheme          =       TREUTLER
    Pruning Scheme         =           NONE
    Nuclear Scheme         =       TREUTLER

    Blocking Scheme        =         OCTREE
    BS radius alpha        =              1
    Pruning alpha          =              1
    Radial Points          =             75
    Spherical Points       =            302
    Total Points           =          42800
    Total Blocks           =            386
    Max Points             =            255
    Max Functions          =             60
    Weights Tolerance      =       1.00E-15

   => Loading Basis Set <=

    Name: (CC-PVTZ AUX)
    Role: JKFIT
    Keyword: DF_BASIS_SCF
    atoms 1 entry O          line   229 file /Users/joseantoniorodriguesromero/anaconda3/share/psi4/basis/cc-pvtz-jkfit.gbs 
    atoms 2 entry N          line   177 file /Users/joseantoniorodriguesromero/anaconda3/share/psi4/basis/cc-pvtz-jkfit.gbs 

   => Loading Basis Set <=

    Name: CC-PVTZ
    Role: ORBITAL
    Keyword: BASIS
    atoms 1 entry O          line   262 file /Users/joseantoniorodriguesromero/anaconda3/share/psi4/basis/cc-pvtz.gbs 
    atoms 2 entry N          line   224 file /Users/joseantoniorodriguesromero/anaconda3/share/psi4/basis/cc-pvtz.gbs 

  Reading orbitals from file /tmp/scan_NO_49.default.49479.180.npy, no projection.

  ==> Integral Setup <==

  DFHelper Memory: AOs need 0.005 GiB; user supplied 0.297 GiB. 
  Using in-core AOs.

  ==> MemDFJK: Density-Fitted J/K Matrices <==

    J tasked:                   Yes
    K tasked:                   Yes
    wK tasked:                   No
    OpenMP threads:               1
    Memory [MiB]:               303
    Algorithm:                 Core
    Schwarz Cutoff:           1E-12
    Mask sparsity (%):       0.0000
    Fitting Condition:        1E-10

   => Auxiliary Basis Set <=

  Basis Set: (CC-PVTZ AUX)
    Blend: CC-PVTZ-JKFIT
    Number of shells: 50
    Number of basis functions: 158
    Number of Cartesian functions: 192
    Spherical Harmonics?: true
    Max angular momentum: 4

  Cached 100.0% of DFT collocation blocks in 0.069 [GiB].

  Minimum eigenvalue in the overlap matrix is 1.8782347327E-02.
  Reciprocal condition number of the overlap matrix is 6.1660829872E-03.
    Using symmetric orthogonalization.

  ==> Pre-Iterations <==

  SCF Guess: Orbitals guess was supplied from a previous computation.

   -------------------------------------------------------
    Irrep   Nso     Nmo     Nalpha   Nbeta   Ndocc  Nsocc
   -------------------------------------------------------
     A1        26      26       5       5       5       0
     A2         6       6       0       0       0       0
     B1        14      14       2       1       1       1
     B2        14      14       2       1       1       1
   -------------------------------------------------------
    Total      60      60       9       7       7       2
   -------------------------------------------------------

  ==> Iterations <==

                           Total Energy        Delta E     RMS |[F,P]|

   @DF-UKS iter   0:  -129.80710104532278   -1.29807e+02   5.85597e-10 
   @DF-UKS iter   1:  -129.80710104532264    1.42109e-13   2.51592e-09 DIIS
  Energy and wave function converged.


  ==> Post-Iterations <==

   Electrons on quadrature grid:
      Nalpha   =    9.0000001299 ; deviation = 1.299e-07
      Nbeta    =    7.0000003282 ; deviation = 3.282e-07
      Ntotal   =   16.0000004581 ; deviation = 4.581e-07 

   @Spin Contamination Metric:   8.090188845E-02
   @S^2 Expected:                2.000000000E+00
   @S^2 Observed:                2.080901888E+00
   @S   Expected:                1.000000000E+00
   @S   Observed:                1.000000000E+00

    Orbital Energies [Eh]
    ---------------------

    Alpha Occupied:                                                       

       1A1   -18.833487     2A1   -14.130465     3A1    -0.582320  
       4A1    -0.460412     1B2    -0.058519     1B1    -0.058519  
       5A1    -0.049873     2B2     0.024763     2B1     0.024763  

    Alpha Virtual:                                                        

       6A1     0.215176     7A1     0.676186     3B1     0.693890  
       3B2     0.693890     8A1     0.821926     4B1     0.897352  
       4B2     0.897352     9A1     0.914304     1A2     1.272360  
      10A1     1.272360     5B2     1.284328     5B1     1.284328  
      11A1     1.299744    12A1     1.551842     2A2     1.804395  
      13A1     1.804397     6B2     1.958004     6B1     1.958004  
      14A1     2.301512     7B1     3.052022     7B2     3.052022  
      15A1     3.231009    16A1     3.820740     8B1     3.919510  
       8B2     3.919510     9B2     4.114379     9B1     4.114379  
      17A1     4.124433     3A2     4.124434    10B1     4.156485  
      10B2     4.156485    18A1     4.366075     4A2     4.634915  
      19A1     4.634939    11B1     4.700458    11B2     4.700458  
      20A1     4.993060     5A2     5.461467    21A1     5.461478  
      12B2     5.464515    12B1     5.464515    13B1     5.550134  
      13B2     5.550134    22A1     5.669486    23A1     5.783697  
      24A1     6.512799     6A2     6.512844    14B1     6.636144  
      14B2     6.636144    25A1     6.950620    26A1     8.108320  

    Beta Occupied:                                                        

       1A1   -18.829408     2A1   -14.091436     3A1    -0.563566  
       4A1    -0.347464     5A1    -0.034026     1B2     0.027556  
       1B1     0.027556  

    Beta Virtual:                                                         

       2B2     0.176562     2B1     0.176562     6A1     0.238798  
       7A1     0.708133     3B2     0.760992     3B1     0.760992  
       8A1     0.848667     4B1     0.914281     4B2     0.914281  
       9A1     0.922352    10A1     1.314438     5B2     1.323364  
       5B1     1.323364    11A1     1.349955     1A2     1.349955  
      12A1     1.573273     2A2     1.821828    13A1     1.821829  
       6B2     1.966554     6B1     1.966554    14A1     2.317030  
       7B1     3.151755     7B2     3.151755    15A1     3.272023  
      16A1     3.827321     8B1     3.941666     8B2     3.941666  
      17A1     4.205582     3A2     4.205584     9B2     4.219422  
       9B1     4.219422    10B1     4.221364    10B2     4.221364  
      18A1     4.413017     4A2     4.777750    19A1     4.777772  
      11B1     4.794097    11B2     4.794097    20A1     5.039229  
       5A2     5.466900    21A1     5.466910    12B2     5.489271  
      12B1     5.489271    13B1     5.547351    13B2     5.547351  
      22A1     5.725879    23A1     5.803064    24A1     6.547820  
       6A2     6.547865    14B1     6.634608    14B2     6.634608  
      25A1     6.927407    26A1     8.123503  

    Final Occupation by Irrep:
             A1    A2    B1    B2 
    DOCC [     5,    0,    1,    1 ]
    SOCC [     0,    0,    1,    1 ]
    NA   [     5,    0,    2,    2 ]
    NB   [     5,    0,    1,    1 ]

  @DF-UKS Final Energy:  -129.80710104532264

   => Energetics <=

    Nuclear Repulsion Energy =             15.8157080461674280
    One-Electron Energy =                -214.3100774953882706
    Two-Electron Energy =                  81.1988343266797727
    DFT Exchange-Correlation Energy =     -12.5115659227815765
    Empirical Dispersion Energy =           0.0000000000000000
    VV10 Nonlocal Energy =                  0.0000000000000000
    Total Energy =                       -129.8071010453226393

  UHF NO Occupations:
  HONO-2 :    5 A1 1.9622532
  HONO-1 :    2 B1 1.0000000
  HONO-0 :    2 B2 1.0000000
  LUNO+0 :    6 A1 0.0377468
  LUNO+1 :    3 B1 0.0012798
  LUNO+2 :    3 B2 0.0012798
  LUNO+3 :    7 A1 0.0007590


Computation Completed


Properties will be evaluated at   0.000000,   0.000000,   0.000000 [a0]

Properties computed using the B3LYP density matrix


 Multipole Moments:

 ------------------------------------------------------------------------------------
     Multipole            Electronic (a.u.)      Nuclear  (a.u.)        Total (a.u.)
 ------------------------------------------------------------------------------------

 L = 1.  Multiply by 2.5417464519 to convert [e a0] to [Debye]
 Dipole X            :          0.0000000            0.0000000            0.0000000
 Dipole Y            :          0.0000000            0.0000000            0.0000000
 Dipole Z            :          0.3104860           -0.0071044            0.3033815
 Magnitude           :                                                    0.3033815

 L = 2.  Multiply by 1.3450342976 to convert [e a0^2] to [Debye ang]
 Quadrupole XX       :         -9.9187278            0.0000000           -9.9187278
 Quadrupole XY       :          0.0000000            0.0000000            0.0000000
 Quadrupole XZ       :          0.0000000            0.0000000            0.0000000
 Quadrupole YY       :         -9.9187278            0.0000000           -9.9187278
 Quadrupole YZ       :          0.0000000            0.0000000            0.0000000
 Quadrupole ZZ       :        -59.6566058           46.8053583          -12.8512475
 Traceless XX        :         16.5792927          -15.6017861            0.9775066
 Traceless YY        :         16.5792927          -15.6017861            0.9775066
 Traceless ZZ        :        -33.1585853           31.2035722           -1.9550131

 ------------------------------------------------------------------------------------
  ==> Computing MBIS Charges <==

  Electron Count from Grid (Expected Number): 16.00000 (16.00000)
  Difference:  0.00000

  MBIS Charges: (a.u.)
   Center  Symbol  Z      Pop.       Charge
      1       O    8    8.662815   -0.662815
      2       N    7    7.337185   -0.337185

  MBIS Dipoles: [e a0]
   Center  Symbol  Z        X           Y           Z
      1       O    8   -0.000000   -0.000000   -0.017614
      2       N    7    0.000000    0.000000   -0.137943

  MBIS Quadrupoles: [e a0^2]
   Center  Symbol  Z      XX        XY        XZ        YY        YZ        ZZ
      1       O    8   -5.0348    0.0000    0.0000   -5.0348    0.0000   -4.4977
      2       N    7   -4.8839    0.0000   -0.0000   -4.8839   -0.0000   -4.8784

  MBIS Octupoles: [e a0^3]
   Center  Symbol  Z      XXX       XXY       XXZ       XYY       XYZ       XZZ       YYY       YYZ       YZZ       ZZZ
      1       O    8    0.0000   -0.0000   -0.0658   -0.0000    0.0000    0.0000    0.0000   -0.0658    0.0000   -0.5181
      2       N    7    0.0000   -0.0000   -0.0139    0.0000   -0.0000    0.0000   -0.0000   -0.0139    0.0000    0.1339

  MBIS Radial Moments:
   Center  Symbol  Z      [a0^2]      [a0^3]      [a0^4]      
      1       O    8   14.567292   29.823877   72.547699
      2       N    7   14.646206   33.034880   88.407972

  MBIS Valence Widths: [a0]
   Center  Symbol  Z     Width
      1       O    8    0.417699
      2       N    7    0.466922

*** tstop() called on Mac.lan at Sun Aug 10 17:47:45 2025
Module time:
	user time   =       3.58 seconds =       0.06 minutes
	system time =       2.14 seconds =       0.04 minutes
	total time  =          1 seconds =       0.02 minutes
Total time:
	user time   =      18.45 seconds =       0.31 minutes
	system time =       4.34 seconds =       0.07 minutes
	total time  =          3 seconds =       0.05 minutes

    Psi4 stopped on: Sunday, 10 August 2025 05:47PM
    Psi4 wall time for execution: 0:00:02.20

*** Psi4 exiting successfully. Buy a developer a beer!
