
    -----------------------------------------------------------------------
          Psi4: An Open-Source Ab Initio Electronic Structure Package
                               Psi4 1.9.1 release

                         Git: Rev {} zzzzzzz 


    D. G. A. Smith, L. A. Burns, A. C. Simmonett, R. M. Parrish,
    M. C. Schieber, R. Galvelis, P. Kraus, H. Kruse, R. Di Remigio,
    A. Alenaizan, A. M. James, S. Lehtola, J. P. Misiewicz, M. Scheurer,
    R. A. Shaw, J. B. Schriber, Y. Xie, Z. L. Glick, D. A. Sirianni,
    J. S. O'Brien, J. M. Waldrop, A. Kumar, E. G. Hohenstein,
    B. P. Pritchard, B. R. Brooks, H. F. Schaefer III, A. Yu. Sokolov,
    K. Patkowski, A. E. DePrince III, U. Bozkaya, R. A. King,
    F. A. Evangelista, J. M. Turney, T. D. Crawford, C. D. Sherrill,
    J. Chem. Phys. 152(18) 184108 (2020). https://doi.org/10.1063/5.0006002

                            Additional Code Authors
    E. T. Seidl, C. L. Janssen, E. F. Valeev, M. L. Leininger,
    J. F. Gonthier, R. M. Richard, H. R. McAlexander, M. Saitow, X. Wang,
    P. Verma, M. H. Lechner, A. Jiang, S. Behnle, A. G. Heide,
    M. F. Herbst, and D. L. Poole

             Previous Authors, Complete List of Code Contributors,
                       and Citations for Specific Modules
    https://github.com/psi4/psi4/blob/master/codemeta.json
    https://github.com/psi4/psi4/graphs/contributors
    http://psicode.org/psi4manual/master/introduction.html#citing-psifour

    -----------------------------------------------------------------------


    Psi4 started on: Sunday, 10 August 2025 05:38PM

    Process ID: 49194
    Host:       Mac.lan
    PSIDATADIR: /Users/joseantoniorodriguesromero/anaconda3/share/psi4
    Memory:     500.0 MiB
    Threads:    1
    
  ==> Input File <==

--------------------------------------------------------------------------
molecule { 
-1 1
O           0.000000           0.000000           0.000000
H           0.000000           0.000000           1.183110
}

set { 
basis              cc-pvtz
reference          uks
maxiter            500
DAMPING_PERCENTAGE 1
E_CONVERGENCE      1.0E-8
D_CONVERGENCE      1.0E-8
DIIS_MAX_VECS      400
MBIS_MAXITER       8000
guess              read
}

E, wfn = energy('b3lyp', restart_file='last_wfn', return_wfn=True)
properties('b3lyp','MBIS_CHARGES', wfn=wfn)
wfn.to_file('last_wfn')
--------------------------------------------------------------------------

Scratch directory: /tmp/
 Found user provided orbital data. Setting orbital guess to READ 
 Copying restart file <last_wfn.npy> to </tmp/scan_HO_38.default.49194.180.npy> for internal processing
   => Libint2 <=

    Primary   basis highest AM E, G, H:  6, 6, 3
    Auxiliary basis highest AM E, G, H:  7, 7, 4
    Onebody   basis highest AM E, G, H:  -, -, -
    Solid Harmonics ordering:            Gaussian

*** tstart() called on Mac.lan
*** at Sun Aug 10 17:38:14 2025

   => Loading Basis Set <=

    Name: CC-PVTZ
    Role: ORBITAL
    Keyword: BASIS
    atoms 1 entry O          line   262 file /Users/joseantoniorodriguesromero/anaconda3/share/psi4/basis/cc-pvtz.gbs 
    atoms 2 entry H          line    23 file /Users/joseantoniorodriguesromero/anaconda3/share/psi4/basis/cc-pvtz.gbs 


         ---------------------------------------------------------
                                   SCF
               by Justin Turney, Rob Parrish, Andy Simmonett
                          and Daniel G. A. Smith
                              UKS Reference
                        1 Threads,    500 MiB Core
         ---------------------------------------------------------

  ==> Geometry <==

    Molecular point group: c2v
    Full point group: C_inf_v

    Geometry (in Angstrom), charge = -1, multiplicity = 1:

       Center              X                  Y                   Z               Mass       
    ------------   -----------------  -----------------  -----------------  -----------------
         O            0.000000000000     0.000000000000    -0.070127985154    15.994914619570
         H            0.000000000000     0.000000000000     1.112982014846     1.007825032230

  Running in c2v symmetry.

  Rotational constants: A = ************  B =     12.70276  C =     12.70276 [cm^-1]
  Rotational constants: A = ************  B = 380819.15639  C = 380819.15639 [MHz]
  Nuclear repulsion =    3.578211396539628

  Charge       = -1
  Multiplicity = 1
  Electrons    = 10
  Nalpha       = 5
  Nbeta        = 5

  ==> Algorithm <==

  SCF Algorithm Type is DF.
  DIIS enabled.
  MOM disabled.
  Fractional occupation disabled.
  Guess Type is READ.
  Energy threshold   = 1.00e-08
  Density threshold  = 1.00e-08
  Integral threshold = 1.00e-12

  ==> Primary Basis <==

  Basis Set: CC-PVTZ
    Blend: CC-PVTZ
    Number of shells: 16
    Number of basis functions: 44
    Number of Cartesian functions: 50
    Spherical Harmonics?: true
    Max angular momentum: 3

  ==> DFT Potential <==

   => LibXC <=

    Version 6.2.2
    S. Lehtola, C. Steigemann, M. J.T. Oliveira, and M. A.L. Marques.,  SoftwareX 7, 1–5 (2018) (10.1016/j.softx.2017.11.002)

   => Composite Functional: B3LYP <= 

    B3LYP Hyb-GGA Exchange-Correlation Functional

    P. J. Stephens, F. J. Devlin, C. F. Chabalowski, and M. J. Frisch.,  J. Phys. Chem. 98, 11623 (1994) (10.1021/j100096a001)

    Deriv               =              1
    GGA                 =           TRUE
    Meta                =          FALSE

    Exchange Hybrid     =           TRUE
    MP2 Hybrid          =          FALSE

   => Exchange Functionals <=

    0.0800   Slater exchange
    0.7200         Becke 88

   => Exact (HF) Exchange <=

    0.2000               HF 

   => Correlation Functionals <=

    0.1900   Vosko, Wilk & Nusair (VWN5_RPA)
    0.8100   Lee, Yang & Parr

   => LibXC Density Thresholds  <==

    XC_HYB_GGA_XC_B3LYP:  1.00E-15 

   => Molecular Quadrature <=

    Radial Scheme          =       TREUTLER
    Pruning Scheme         =           NONE
    Nuclear Scheme         =       TREUTLER

    Blocking Scheme        =         OCTREE
    BS radius alpha        =              1
    Pruning alpha          =              1
    Radial Points          =             75
    Spherical Points       =            302
    Total Points           =          44164
    Total Blocks           =            390
    Max Points             =            254
    Max Functions          =             44
    Weights Tolerance      =       1.00E-15

   => Loading Basis Set <=

    Name: (CC-PVTZ AUX)
    Role: JKFIT
    Keyword: DF_BASIS_SCF
    atoms 1 entry O          line   229 file /Users/joseantoniorodriguesromero/anaconda3/share/psi4/basis/cc-pvtz-jkfit.gbs 
    atoms 2 entry H          line    51 file /Users/joseantoniorodriguesromero/anaconda3/share/psi4/basis/cc-pvtz-jkfit.gbs 

   => Loading Basis Set <=

    Name: CC-PVTZ
    Role: ORBITAL
    Keyword: BASIS
    atoms 1 entry O          line   262 file /Users/joseantoniorodriguesromero/anaconda3/share/psi4/basis/cc-pvtz.gbs 
    atoms 2 entry H          line    23 file /Users/joseantoniorodriguesromero/anaconda3/share/psi4/basis/cc-pvtz.gbs 

  Reading orbitals from file /tmp/scan_HO_38.default.49194.180.npy, no projection.

  ==> Integral Setup <==

  DFHelper Memory: AOs need 0.002 GiB; user supplied 0.312 GiB. 
  Using in-core AOs.

  ==> MemDFJK: Density-Fitted J/K Matrices <==

    J tasked:                   Yes
    K tasked:                   Yes
    wK tasked:                   No
    OpenMP threads:               1
    Memory [MiB]:               319
    Algorithm:                 Core
    Schwarz Cutoff:           1E-12
    Mask sparsity (%):       0.0000
    Fitting Condition:        1E-10

   => Auxiliary Basis Set <=

  Basis Set: (CC-PVTZ AUX)
    Blend: CC-PVTZ-JKFIT
    Number of shells: 35
    Number of basis functions: 109
    Number of Cartesian functions: 131
    Spherical Harmonics?: true
    Max angular momentum: 4

  Cached 100.0% of DFT collocation blocks in 0.054 [GiB].

  Minimum eigenvalue in the overlap matrix is 9.5863491193E-03.
  Reciprocal condition number of the overlap matrix is 2.5844973853E-03.
    Using symmetric orthogonalization.

  ==> Pre-Iterations <==

  SCF Guess: Orbitals guess was supplied from a previous computation.

   -------------------------------------------------------
    Irrep   Nso     Nmo     Nalpha   Nbeta   Ndocc  Nsocc
   -------------------------------------------------------
     A1        20      20       3       3       3       0
     A2         4       4       0       0       0       0
     B1        10      10       1       1       1       0
     B2        10      10       1       1       1       0
   -------------------------------------------------------
    Total      44      44       5       5       5       0
   -------------------------------------------------------

  ==> Iterations <==

                           Total Energy        Delta E     RMS |[F,P]|

   @DF-UKS iter   0:   -75.76304704658480   -7.57630e+01   1.14278e-03 
   @DF-UKS iter   1:   -75.76760155697305   -4.55451e-03   4.13096e-04 ADIIS/DIIS
   @DF-UKS iter   2:   -75.76759217428396    9.38269e-06   4.69797e-04 ADIIS/DIIS/DAMP=1%
   @DF-UKS iter   3:   -75.76798363479556   -3.91461e-04   1.85704e-04 ADIIS/DIIS/DAMP=1%
   @DF-UKS iter   4:   -75.76754253686441    4.41098e-04   6.19631e-06 DIIS/DAMP=1%
   @DF-UKS iter   5:   -75.76764445062619   -1.01914e-04   8.65953e-07 DIIS/DAMP=1%
   @DF-UKS iter   6:   -75.76764788776738   -3.43714e-06   3.53186e-08 DIIS/DAMP=1%
   @DF-UKS iter   7:   -75.76764836039737   -4.72630e-07   2.21268e-08 DIIS/DAMP=1%
   @DF-UKS iter   8:   -75.76764834824574    1.21516e-08   1.93898e-10 DIIS/DAMP=1%
   @DF-UKS iter   9:   -75.76764836152023   -1.32745e-08   1.38980e-10 DIIS/DAMP=1%
   @DF-UKS iter  10:   -75.76764836146771    5.25233e-11   5.32879e-12 DIIS/DAMP=1%
  Energy and wave function converged.


  ==> Post-Iterations <==

   Electrons on quadrature grid:
      Nalpha   =    5.0000000572 ; deviation = 5.719e-08
      Nbeta    =    5.0000000572 ; deviation = 5.719e-08
      Ntotal   =   10.0000001144 ; deviation = 1.144e-07 

   @Spin Contamination Metric:   8.881784197E-16
   @S^2 Expected:                0.000000000E+00
   @S^2 Observed:                8.881784197E-16
   @S   Expected:                0.000000000E+00
   @S   Observed:                0.000000000E+00

    Orbital Energies [Eh]
    ---------------------

    Alpha Occupied:                                                       

       1A1   -18.709020     2A1    -0.494097     3A1    -0.022977  
       1B2     0.105728     1B1     0.105728  

    Alpha Virtual:                                                        

       4A1     0.290732     5A1     0.606987     6A1     0.879252  
       2B1     0.909773     2B2     0.909773     3B1     1.025949  
       3B2     1.025949     7A1     1.288014     8A1     1.431620  
       1A2     1.877362     9A1     1.877362     4B1     2.060713  
       4B2     2.060713    10A1     2.450917    11A1     2.667522  
      12A1     3.527221     2A2     3.527222     5B1     3.668100  
       5B2     3.668100    13A1     3.788756     6B1     4.019541  
       6B2     4.019541     7B1     4.249677     7B2     4.249677  
      14A1     4.282174    15A1     5.209369     8B1     5.573800  
       8B2     5.573800     3A2     5.639885    16A1     5.639885  
       9B2     6.195619     9B1     6.195619    17A1     6.507483  
      18A1     6.648354     4A2     6.648355    10B1     6.911374  
      10B2     6.911374    19A1     7.278941    20A1     8.936953  

    Beta Occupied:                                                        

       1A1   -18.709020     2A1    -0.494097     3A1    -0.022977  
       1B2     0.105728     1B1     0.105728  

    Beta Virtual:                                                         

       4A1     0.290732     5A1     0.606987     6A1     0.879252  
       2B1     0.909773     2B2     0.909773     3B1     1.025949  
       3B2     1.025949     7A1     1.288014     8A1     1.431620  
       1A2     1.877362     9A1     1.877362     4B1     2.060713  
       4B2     2.060713    10A1     2.450917    11A1     2.667522  
      12A1     3.527221     2A2     3.527222     5B1     3.668100  
       5B2     3.668100    13A1     3.788756     6B1     4.019541  
       6B2     4.019541     7B1     4.249677     7B2     4.249677  
      14A1     4.282174    15A1     5.209369     8B1     5.573800  
       8B2     5.573800     3A2     5.639885    16A1     5.639885  
       9B2     6.195619     9B1     6.195619    17A1     6.507483  
      18A1     6.648354     4A2     6.648355    10B1     6.911374  
      10B2     6.911374    19A1     7.278941    20A1     8.936953  

    Final Occupation by Irrep:
             A1    A2    B1    B2 
    DOCC [     3,    0,    1,    1 ]
    SOCC [     0,    0,    0,    0 ]
    NA   [     3,    0,    1,    1 ]
    NB   [     3,    0,    1,    1 ]

  @DF-UKS Final Energy:   -75.76764836146771

   => Energetics <=

    Nuclear Repulsion Energy =              3.5782113965396283
    One-Electron Energy =                -115.3505453348013816
    Two-Electron Energy =                  43.3962555891639212
    DFT Exchange-Correlation Energy =      -7.3915700123698880
    Empirical Dispersion Energy =           0.0000000000000000
    VV10 Nonlocal Energy =                  0.0000000000000000
    Total Energy =                        -75.7676483614677210

  UHF NO Occupations:
  HONO-2 :    1 B2 2.0000000
  HONO-1 :    1 B1 2.0000000
  HONO-0 :    3 A1 2.0000000
  LUNO+0 :    4 A1 0.0000000
  LUNO+1 :    5 A1 0.0000000
  LUNO+2 :    6 A1 0.0000000
  LUNO+3 :    2 B2 0.0000000


Computation Completed


Properties will be evaluated at   0.000000,   0.000000,   0.000000 [a0]

Properties computed using the SCF density matrix


 Multipole Moments:

 ------------------------------------------------------------------------------------
     Multipole            Electronic (a.u.)      Nuclear  (a.u.)        Total (a.u.)
 ------------------------------------------------------------------------------------

 L = 1.  Multiply by 2.5417464519 to convert [e a0] to [Debye]
 Dipole X            :          0.0000000            0.0000000            0.0000000
 Dipole Y            :          0.0000000            0.0000000            0.0000000
 Dipole Z            :         -0.8587057            1.0430497            0.1843440
 Magnitude           :                                                    0.1843440

 ------------------------------------------------------------------------------------

*** tstop() called on Mac.lan at Sun Aug 10 17:38:15 2025
Module time:
	user time   =      10.07 seconds =       0.17 minutes
	system time =       1.91 seconds =       0.03 minutes
	total time  =          1 seconds =       0.02 minutes
Total time:
	user time   =      10.07 seconds =       0.17 minutes
	system time =       1.91 seconds =       0.03 minutes
	total time  =          1 seconds =       0.02 minutes

*** tstart() called on Mac.lan
*** at Sun Aug 10 17:38:15 2025

   => Libint2 <=

    Primary   basis highest AM E, G, H:  6, 6, 3
    Auxiliary basis highest AM E, G, H:  7, 7, 4
    Onebody   basis highest AM E, G, H:  -, -, -
    Solid Harmonics ordering:            Gaussian
   => Loading Basis Set <=

    Name: CC-PVTZ
    Role: ORBITAL
    Keyword: BASIS
    atoms 1 entry O          line   262 file /Users/joseantoniorodriguesromero/anaconda3/share/psi4/basis/cc-pvtz.gbs 
    atoms 2 entry H          line    23 file /Users/joseantoniorodriguesromero/anaconda3/share/psi4/basis/cc-pvtz.gbs 


         ---------------------------------------------------------
                                   SCF
               by Justin Turney, Rob Parrish, Andy Simmonett
                          and Daniel G. A. Smith
                              UKS Reference
                        1 Threads,    500 MiB Core
         ---------------------------------------------------------

  ==> Geometry <==

    Molecular point group: c2v
    Full point group: C_inf_v

    Geometry (in Angstrom), charge = -1, multiplicity = 1:

       Center              X                  Y                   Z               Mass       
    ------------   -----------------  -----------------  -----------------  -----------------
         O            0.000000000000     0.000000000000    -0.070127985154    15.994914619570
         H            0.000000000000     0.000000000000     1.112982014846     1.007825032230

  Running in c2v symmetry.

  Rotational constants: A = ************  B =     12.70276  C =     12.70276 [cm^-1]
  Rotational constants: A = ************  B = 380819.15639  C = 380819.15639 [MHz]
  Nuclear repulsion =    3.578211396539628

  Charge       = -1
  Multiplicity = 1
  Electrons    = 10
  Nalpha       = 5
  Nbeta        = 5

  ==> Algorithm <==

  SCF Algorithm Type is DF.
  DIIS enabled.
  MOM disabled.
  Fractional occupation disabled.
  Guess Type is READ.
  Energy threshold   = 1.00e-08
  Density threshold  = 1.00e-08
  Integral threshold = 1.00e-12

  ==> Primary Basis <==

  Basis Set: CC-PVTZ
    Blend: CC-PVTZ
    Number of shells: 16
    Number of basis functions: 44
    Number of Cartesian functions: 50
    Spherical Harmonics?: true
    Max angular momentum: 3

  ==> DFT Potential <==

   => LibXC <=

    Version 6.2.2
    S. Lehtola, C. Steigemann, M. J.T. Oliveira, and M. A.L. Marques.,  SoftwareX 7, 1–5 (2018) (10.1016/j.softx.2017.11.002)

   => Composite Functional: B3LYP <= 

    B3LYP Hyb-GGA Exchange-Correlation Functional

    P. J. Stephens, F. J. Devlin, C. F. Chabalowski, and M. J. Frisch.,  J. Phys. Chem. 98, 11623 (1994) (10.1021/j100096a001)

    Deriv               =              1
    GGA                 =           TRUE
    Meta                =          FALSE

    Exchange Hybrid     =           TRUE
    MP2 Hybrid          =          FALSE

   => Exchange Functionals <=

    0.0800   Slater exchange
    0.7200         Becke 88

   => Exact (HF) Exchange <=

    0.2000               HF 

   => Correlation Functionals <=

    0.1900   Vosko, Wilk & Nusair (VWN5_RPA)
    0.8100   Lee, Yang & Parr

   => LibXC Density Thresholds  <==

    XC_HYB_GGA_XC_B3LYP:  1.00E-15 

   => Molecular Quadrature <=

    Radial Scheme          =       TREUTLER
    Pruning Scheme         =           NONE
    Nuclear Scheme         =       TREUTLER

    Blocking Scheme        =         OCTREE
    BS radius alpha        =              1
    Pruning alpha          =              1
    Radial Points          =             75
    Spherical Points       =            302
    Total Points           =          44164
    Total Blocks           =            390
    Max Points             =            254
    Max Functions          =             44
    Weights Tolerance      =       1.00E-15

   => Loading Basis Set <=

    Name: (CC-PVTZ AUX)
    Role: JKFIT
    Keyword: DF_BASIS_SCF
    atoms 1 entry O          line   229 file /Users/joseantoniorodriguesromero/anaconda3/share/psi4/basis/cc-pvtz-jkfit.gbs 
    atoms 2 entry H          line    51 file /Users/joseantoniorodriguesromero/anaconda3/share/psi4/basis/cc-pvtz-jkfit.gbs 

   => Loading Basis Set <=

    Name: CC-PVTZ
    Role: ORBITAL
    Keyword: BASIS
    atoms 1 entry O          line   262 file /Users/joseantoniorodriguesromero/anaconda3/share/psi4/basis/cc-pvtz.gbs 
    atoms 2 entry H          line    23 file /Users/joseantoniorodriguesromero/anaconda3/share/psi4/basis/cc-pvtz.gbs 

  Reading orbitals from file /tmp/scan_HO_38.default.49194.180.npy, no projection.

  ==> Integral Setup <==

  DFHelper Memory: AOs need 0.002 GiB; user supplied 0.312 GiB. 
  Using in-core AOs.

  ==> MemDFJK: Density-Fitted J/K Matrices <==

    J tasked:                   Yes
    K tasked:                   Yes
    wK tasked:                   No
    OpenMP threads:               1
    Memory [MiB]:               319
    Algorithm:                 Core
    Schwarz Cutoff:           1E-12
    Mask sparsity (%):       0.0000
    Fitting Condition:        1E-10

   => Auxiliary Basis Set <=

  Basis Set: (CC-PVTZ AUX)
    Blend: CC-PVTZ-JKFIT
    Number of shells: 35
    Number of basis functions: 109
    Number of Cartesian functions: 131
    Spherical Harmonics?: true
    Max angular momentum: 4

  Cached 100.0% of DFT collocation blocks in 0.054 [GiB].

  Minimum eigenvalue in the overlap matrix is 9.5863491193E-03.
  Reciprocal condition number of the overlap matrix is 2.5844973853E-03.
    Using symmetric orthogonalization.

  ==> Pre-Iterations <==

  SCF Guess: Orbitals guess was supplied from a previous computation.

   -------------------------------------------------------
    Irrep   Nso     Nmo     Nalpha   Nbeta   Ndocc  Nsocc
   -------------------------------------------------------
     A1        20      20       3       3       3       0
     A2         4       4       0       0       0       0
     B1        10      10       1       1       1       0
     B2        10      10       1       1       1       0
   -------------------------------------------------------
    Total      44      44       5       5       5       0
   -------------------------------------------------------

  ==> Iterations <==

                           Total Energy        Delta E     RMS |[F,P]|

   @DF-UKS iter   0:   -75.76764836155117   -7.57676e+01   1.18279e-12 
   @DF-UKS iter   1:   -75.76764836155120   -2.84217e-14   2.38313e-12 DIIS
  Energy and wave function converged.


  ==> Post-Iterations <==

   Electrons on quadrature grid:
      Nalpha   =    5.0000000572 ; deviation = 5.719e-08
      Nbeta    =    5.0000000572 ; deviation = 5.719e-08
      Ntotal   =   10.0000001144 ; deviation = 1.144e-07 

   @Spin Contamination Metric:   6.217248938E-15
   @S^2 Expected:                0.000000000E+00
   @S^2 Observed:                6.217248938E-15
   @S   Expected:                0.000000000E+00
   @S   Observed:                0.000000000E+00

    Orbital Energies [Eh]
    ---------------------

    Alpha Occupied:                                                       

       1A1   -18.709020     2A1    -0.494097     3A1    -0.022977  
       1B2     0.105728     1B1     0.105728  

    Alpha Virtual:                                                        

       4A1     0.290732     5A1     0.606987     6A1     0.879252  
       2B1     0.909773     2B2     0.909773     3B1     1.025949  
       3B2     1.025949     7A1     1.288014     8A1     1.431620  
       1A2     1.877362     9A1     1.877362     4B1     2.060713  
       4B2     2.060713    10A1     2.450917    11A1     2.667522  
      12A1     3.527221     2A2     3.527222     5B1     3.668100  
       5B2     3.668100    13A1     3.788756     6B1     4.019541  
       6B2     4.019541     7B1     4.249677     7B2     4.249677  
      14A1     4.282174    15A1     5.209369     8B1     5.573800  
       8B2     5.573800     3A2     5.639885    16A1     5.639885  
       9B2     6.195619     9B1     6.195619    17A1     6.507483  
      18A1     6.648354     4A2     6.648355    10B1     6.911374  
      10B2     6.911374    19A1     7.278941    20A1     8.936953  

    Beta Occupied:                                                        

       1A1   -18.709020     2A1    -0.494097     3A1    -0.022977  
       1B2     0.105728     1B1     0.105728  

    Beta Virtual:                                                         

       4A1     0.290732     5A1     0.606987     6A1     0.879252  
       2B1     0.909773     2B2     0.909773     3B1     1.025949  
       3B2     1.025949     7A1     1.288014     8A1     1.431620  
       1A2     1.877362     9A1     1.877362     4B1     2.060713  
       4B2     2.060713    10A1     2.450917    11A1     2.667522  
      12A1     3.527221     2A2     3.527222     5B1     3.668100  
       5B2     3.668100    13A1     3.788756     6B1     4.019541  
       6B2     4.019541     7B1     4.249677     7B2     4.249677  
      14A1     4.282174    15A1     5.209369     8B1     5.573800  
       8B2     5.573800     3A2     5.639885    16A1     5.639885  
       9B2     6.195619     9B1     6.195619    17A1     6.507483  
      18A1     6.648354     4A2     6.648355    10B1     6.911374  
      10B2     6.911374    19A1     7.278941    20A1     8.936953  

    Final Occupation by Irrep:
             A1    A2    B1    B2 
    DOCC [     3,    0,    1,    1 ]
    SOCC [     0,    0,    0,    0 ]
    NA   [     3,    0,    1,    1 ]
    NB   [     3,    0,    1,    1 ]

  @DF-UKS Final Energy:   -75.76764836155120

   => Energetics <=

    Nuclear Repulsion Energy =              3.5782113965396283
    One-Electron Energy =                -115.3505453357534236
    Two-Electron Energy =                  43.3962555901305933
    DFT Exchange-Correlation Energy =      -7.3915700124679784
    Empirical Dispersion Energy =           0.0000000000000000
    VV10 Nonlocal Energy =                  0.0000000000000000
    Total Energy =                        -75.7676483615511813

  UHF NO Occupations:
  HONO-2 :    2 A1 2.0000000
  HONO-1 :    1 B1 2.0000000
  HONO-0 :    3 A1 2.0000000
  LUNO+0 :    4 A1 0.0000000
  LUNO+1 :    5 A1 0.0000000
  LUNO+2 :    6 A1 0.0000000
  LUNO+3 :    7 A1 0.0000000


Computation Completed


Properties will be evaluated at   0.000000,   0.000000,   0.000000 [a0]

Properties computed using the B3LYP density matrix


 Multipole Moments:

 ------------------------------------------------------------------------------------
     Multipole            Electronic (a.u.)      Nuclear  (a.u.)        Total (a.u.)
 ------------------------------------------------------------------------------------

 L = 1.  Multiply by 2.5417464519 to convert [e a0] to [Debye]
 Dipole X            :          0.0000000            0.0000000            0.0000000
 Dipole Y            :          0.0000000            0.0000000            0.0000000
 Dipole Z            :         -0.8587057            1.0430497            0.1843440
 Magnitude           :                                                    0.1843440

 L = 2.  Multiply by 1.3450342976 to convert [e a0^2] to [Debye ang]
 Quadrupole XX       :         -6.5313506            0.0000000           -6.5313506
 Quadrupole XY       :          0.0000000            0.0000000            0.0000000
 Quadrupole XZ       :          0.0000000            0.0000000            0.0000000
 Quadrupole YY       :         -6.5313506            0.0000000           -6.5313506
 Quadrupole YZ       :          0.0000000            0.0000000            0.0000000
 Quadrupole ZZ       :        -10.1849569            4.5640795           -5.6208773
 Traceless XX        :          1.2178687           -1.5213598           -0.3034911
 Traceless YY        :          1.2178687           -1.5213598           -0.3034911
 Traceless ZZ        :         -2.4357375            3.0427197            0.6069822

 ------------------------------------------------------------------------------------
  ==> Computing MBIS Charges <==

  Electron Count from Grid (Expected Number): 10.00000 (10.00000)
  Difference:  0.00000

  MBIS Charges: (a.u.)
   Center  Symbol  Z      Pop.       Charge
      1       O    8    9.063796   -1.063796
      2       H    1    0.936204    0.063796

  MBIS Dipoles: [e a0]
   Center  Symbol  Z        X           Y           Z
      1       O    8   -0.000000   -0.000000   -0.106050
      2       H    1    0.000000   -0.000000    0.015238

  MBIS Quadrupoles: [e a0^2]
   Center  Symbol  Z      XX        XY        XZ        YY        YZ        ZZ
      1       O    8   -5.6444    0.0000    0.0000   -5.6444   -0.0000   -5.1077
      2       H    1   -0.8870    0.0000    0.0000   -0.8870   -0.0000   -0.8689

  MBIS Octupoles: [e a0^3]
   Center  Symbol  Z      XXX       XXY       XXZ       XYY       XYZ       XZZ       YYY       YYZ       YZZ       ZZZ
      1       O    8   -0.0000   -0.0000   -0.1940   -0.0000   -0.0000    0.0000   -0.0000   -0.1940   -0.0000   -0.9546
      2       H    1    0.0000   -0.0000    0.0011    0.0000    0.0000   -0.0000   -0.0000    0.0011   -0.0000   -0.0056

  MBIS Radial Moments:
   Center  Symbol  Z      [a0^2]      [a0^3]      [a0^4]      
      1       O    8   16.396396   34.629637   86.752553
      2       H    1    2.642915    6.386258   18.244372

  MBIS Valence Widths: [a0]
   Center  Symbol  Z     Width
      1       O    8    0.431499
      2       H    1    0.483687

*** tstop() called on Mac.lan at Sun Aug 10 17:38:16 2025
Module time:
	user time   =       2.92 seconds =       0.05 minutes
	system time =       1.97 seconds =       0.03 minutes
	total time  =          1 seconds =       0.02 minutes
Total time:
	user time   =      13.11 seconds =       0.22 minutes
	system time =       3.97 seconds =       0.07 minutes
	total time  =          2 seconds =       0.03 minutes

    Psi4 stopped on: Sunday, 10 August 2025 05:38PM
    Psi4 wall time for execution: 0:00:01.66

*** Psi4 exiting successfully. Buy a developer a beer!
