
    -----------------------------------------------------------------------
          Psi4: An Open-Source Ab Initio Electronic Structure Package
                               Psi4 1.9.1 release

                         Git: Rev {} zzzzzzz 


    D. G. A. Smith, L. A. Burns, A. C. Simmonett, R. M. Parrish,
    M. C. Schieber, R. Galvelis, P. Kraus, H. Kruse, R. Di Remigio,
    A. Alenaizan, A. M. James, S. Lehtola, J. P. Misiewicz, M. Scheurer,
    R. A. Shaw, J. B. Schriber, Y. Xie, Z. L. Glick, D. A. Sirianni,
    J. S. O'Brien, J. M. Waldrop, A. Kumar, E. G. Hohenstein,
    B. P. Pritchard, B. R. Brooks, H. F. Schaefer III, A. Yu. Sokolov,
    K. Patkowski, A. E. DePrince III, U. Bozkaya, R. A. King,
    F. A. Evangelista, J. M. Turney, T. D. Crawford, C. D. Sherrill,
    J. Chem. Phys. 152(18) 184108 (2020). https://doi.org/10.1063/5.0006002

                            Additional Code Authors
    E. T. Seidl, C. L. Janssen, E. F. Valeev, M. L. Leininger,
    J. F. Gonthier, R. M. Richard, H. R. McAlexander, M. Saitow, X. Wang,
    P. Verma, M. H. Lechner, A. Jiang, S. Behnle, A. G. Heide,
    M. F. Herbst, and D. L. Poole

             Previous Authors, Complete List of Code Contributors,
                       and Citations for Specific Modules
    https://github.com/psi4/psi4/blob/master/codemeta.json
    https://github.com/psi4/psi4/graphs/contributors
    http://psicode.org/psi4manual/master/introduction.html#citing-psifour

    -----------------------------------------------------------------------


    Psi4 started on: Sunday, 10 August 2025 05:26PM

    Process ID: 48798
    Host:       Mac.lan
    PSIDATADIR: /Users/joseantoniorodriguesromero/anaconda3/share/psi4
    Memory:     500.0 MiB
    Threads:    1
    
  ==> Input File <==

--------------------------------------------------------------------------
molecule { 
-1 2
H           0.000000           0.000000           0.000000
H           0.000000           0.000000           1.363185
}

set { 
basis              cc-pvtz
reference          uks
maxiter            500
DAMPING_PERCENTAGE 1
E_CONVERGENCE      1.0E-8
D_CONVERGENCE      1.0E-8
DIIS_MAX_VECS      400
MBIS_MAXITER       8000
guess              read
}

E, wfn = energy('b3lyp', restart_file='last_wfn', return_wfn=True)
properties('b3lyp','MBIS_CHARGES', wfn=wfn)
wfn.to_file('last_wfn')
--------------------------------------------------------------------------

Scratch directory: /tmp/
 Found user provided orbital data. Setting orbital guess to READ 
 Copying restart file <last_wfn.npy> to </tmp/scan_HH_36.default.48798.180.npy> for internal processing
   => Libint2 <=

    Primary   basis highest AM E, G, H:  6, 6, 3
    Auxiliary basis highest AM E, G, H:  7, 7, 4
    Onebody   basis highest AM E, G, H:  -, -, -
    Solid Harmonics ordering:            Gaussian

*** tstart() called on Mac.lan
*** at Sun Aug 10 17:26:23 2025

   => Loading Basis Set <=

    Name: CC-PVTZ
    Role: ORBITAL
    Keyword: BASIS
    atoms 1-2 entry H          line    23 file /Users/joseantoniorodriguesromero/anaconda3/share/psi4/basis/cc-pvtz.gbs 


         ---------------------------------------------------------
                                   SCF
               by Justin Turney, Rob Parrish, Andy Simmonett
                          and Daniel G. A. Smith
                              UKS Reference
                        1 Threads,    500 MiB Core
         ---------------------------------------------------------

  ==> Geometry <==

    Molecular point group: d2h
    Full point group: D_inf_h

    Geometry (in Angstrom), charge = -1, multiplicity = 2:

       Center              X                  Y                   Z               Mass       
    ------------   -----------------  -----------------  -----------------  -----------------
         H            0.000000000000     0.000000000000    -0.681592500000     1.007825032230
         H            0.000000000000     0.000000000000     0.681592500000     1.007825032230

  Running in d2h symmetry.

  Rotational constants: A = ************  B =     18.00246  C =     18.00246 [cm^-1]
  Rotational constants: A = ************  B = 539700.04793  C = 539700.04793 [MHz]
  Nuclear repulsion =    0.388191779303616

  Charge       = -1
  Multiplicity = 2
  Electrons    = 3
  Nalpha       = 2
  Nbeta        = 1

  ==> Algorithm <==

  SCF Algorithm Type is DF.
  DIIS enabled.
  MOM disabled.
  Fractional occupation disabled.
  Guess Type is READ.
  Energy threshold   = 1.00e-08
  Density threshold  = 1.00e-08
  Integral threshold = 1.00e-12

  ==> Primary Basis <==

  Basis Set: CC-PVTZ
    Blend: CC-PVTZ
    Number of shells: 12
    Number of basis functions: 28
    Number of Cartesian functions: 30
    Spherical Harmonics?: true
    Max angular momentum: 2

  ==> DFT Potential <==

   => LibXC <=

    Version 6.2.2
    S. Lehtola, C. Steigemann, M. J.T. Oliveira, and M. A.L. Marques.,  SoftwareX 7, 1–5 (2018) (10.1016/j.softx.2017.11.002)

   => Composite Functional: B3LYP <= 

    B3LYP Hyb-GGA Exchange-Correlation Functional

    P. J. Stephens, F. J. Devlin, C. F. Chabalowski, and M. J. Frisch.,  J. Phys. Chem. 98, 11623 (1994) (10.1021/j100096a001)

    Deriv               =              1
    GGA                 =           TRUE
    Meta                =          FALSE

    Exchange Hybrid     =           TRUE
    MP2 Hybrid          =          FALSE

   => Exchange Functionals <=

    0.0800   Slater exchange
    0.7200         Becke 88

   => Exact (HF) Exchange <=

    0.2000               HF 

   => Correlation Functionals <=

    0.1900   Vosko, Wilk & Nusair (VWN5_RPA)
    0.8100   Lee, Yang & Parr

   => LibXC Density Thresholds  <==

    XC_HYB_GGA_XC_B3LYP:  1.00E-15 

   => Molecular Quadrature <=

    Radial Scheme          =       TREUTLER
    Pruning Scheme         =           NONE
    Nuclear Scheme         =       TREUTLER

    Blocking Scheme        =         OCTREE
    BS radius alpha        =              1
    Pruning alpha          =              1
    Radial Points          =             75
    Spherical Points       =            302
    Total Points           =          44660
    Total Blocks           =            394
    Max Points             =            251
    Max Functions          =             28
    Weights Tolerance      =       1.00E-15

   => Loading Basis Set <=

    Name: (CC-PVTZ AUX)
    Role: JKFIT
    Keyword: DF_BASIS_SCF
    atoms 1-2 entry H          line    51 file /Users/joseantoniorodriguesromero/anaconda3/share/psi4/basis/cc-pvtz-jkfit.gbs 

   => Loading Basis Set <=

    Name: CC-PVTZ
    Role: ORBITAL
    Keyword: BASIS
    atoms 1-2 entry H          line    23 file /Users/joseantoniorodriguesromero/anaconda3/share/psi4/basis/cc-pvtz.gbs 

  Reading orbitals from file /tmp/scan_HH_36.default.48798.180.npy, no projection.

  ==> Integral Setup <==

  DFHelper Memory: AOs need 0.001 GiB; user supplied 0.330 GiB. 
  Using in-core AOs.

  ==> MemDFJK: Density-Fitted J/K Matrices <==

    J tasked:                   Yes
    K tasked:                   Yes
    wK tasked:                   No
    OpenMP threads:               1
    Memory [MiB]:               337
    Algorithm:                 Core
    Schwarz Cutoff:           1E-12
    Mask sparsity (%):       0.0000
    Fitting Condition:        1E-10

   => Auxiliary Basis Set <=

  Basis Set: (CC-PVTZ AUX)
    Blend: CC-PVTZ-JKFIT
    Number of shells: 20
    Number of basis functions: 60
    Number of Cartesian functions: 70
    Spherical Harmonics?: true
    Max angular momentum: 3

  Cached 100.0% of DFT collocation blocks in 0.036 [GiB].

  Minimum eigenvalue in the overlap matrix is 6.2598516429E-02.
  Reciprocal condition number of the overlap matrix is 2.1407306704E-02.
    Using symmetric orthogonalization.

  ==> Pre-Iterations <==

  SCF Guess: Orbitals guess was supplied from a previous computation.

   -------------------------------------------------------
    Irrep   Nso     Nmo     Nalpha   Nbeta   Ndocc  Nsocc
   -------------------------------------------------------
     Ag         7       7       1       1       1       0
     B1g        1       1       0       0       0       0
     B2g        3       3       0       0       0       0
     B3g        3       3       0       0       0       0
     Au         1       1       0       0       0       0
     B1u        7       7       1       0       0       1
     B2u        3       3       0       0       0       0
     B3u        3       3       0       0       0       0
   -------------------------------------------------------
    Total      28      28       2       1       1       1
   -------------------------------------------------------

  ==> Iterations <==

                           Total Energy        Delta E     RMS |[F,P]|

   @DF-UKS iter   0:    -1.05317817371935   -1.05318e+00   7.10702e-04 
   @DF-UKS iter   1:    -1.05773073634077   -4.55256e-03   1.36647e-04 ADIIS/DIIS
   @DF-UKS iter   2:    -1.05773488111843   -4.14478e-06   5.16713e-05 DIIS/DAMP=1%
   @DF-UKS iter   3:    -1.05773872681938   -3.84570e-06   1.12088e-05 DIIS/DAMP=1%
   @DF-UKS iter   4:    -1.05773485725349    3.86957e-06   2.03949e-06 DIIS/DAMP=1%
   @DF-UKS iter   5:    -1.05773535965267   -5.02399e-07   1.59667e-07 DIIS/DAMP=1%
   @DF-UKS iter   6:    -1.05773535755426    2.09840e-09   9.83086e-09 DIIS/DAMP=1%
  Energy and wave function converged.


  ==> Post-Iterations <==

   Electrons on quadrature grid:
      Nalpha   =    2.0000000166 ; deviation = 1.662e-08
      Nbeta    =    1.0000000083 ; deviation = 8.253e-09
      Ntotal   =    3.0000000249 ; deviation = 2.487e-08 

   @Spin Contamination Metric:   2.870331195E-03
   @S^2 Expected:                7.500000000E-01
   @S^2 Observed:                7.528703312E-01
   @S   Expected:                5.000000000E-01
   @S   Observed:                5.000000000E-01

    Orbital Energies [Eh]
    ---------------------

    Alpha Occupied:                                                       

       1Ag    -0.048457     1B1u    0.137190  

    Alpha Virtual:                                                        

       2Ag     0.487735     2B1u    0.557945     1B3u    0.798860  
       1B2u    0.798860     3Ag     0.974159     1B2g    1.072788  
       1B3g    1.072788     3B1u    1.471018     4Ag     2.556640  
       4B1u    2.699115     5Ag     3.175057     2B2u    3.175350  
       2B3u    3.175350     1B1g    3.408004     6Ag     3.408005  
       1Au     3.622513     5B1u    3.622514     3B2u    3.898755  
       3B3u    3.898755     2B3g    3.917645     2B2g    3.917645  
       6B1u    4.076782     3B2g    4.248081     3B3g    4.248081  
       7Ag     4.415281     7B1u    5.404791  

    Beta Occupied:                                                        

       1Ag     0.000669  

    Beta Virtual:                                                         

       1B1u    0.244130     2Ag     0.508672     2B1u    0.608820  
       1B3u    0.820561     1B2u    0.820561     3Ag     1.015828  
       1B2g    1.114107     1B3g    1.114107     3B1u    1.514871  
       4Ag     2.620033     4B1u    2.758804     5Ag     3.199032  
       2B2u    3.207146     2B3u    3.207146     1B1g    3.445845  
       6Ag     3.445845     1Au     3.663505     5B1u    3.663506  
       3B2u    3.952813     3B3u    3.952813     2B3g    3.963431  
       2B2g    3.963431     6B1u    4.134546     3B2g    4.297368  
       3B3g    4.297368     7Ag     4.470166     7B1u    5.444584  

    Final Occupation by Irrep:
             Ag   B1g   B2g   B3g    Au   B1u   B2u   B3u 
    DOCC [     1,    0,    0,    0,    0,    0,    0,    0 ]
    SOCC [     0,    0,    0,    0,    0,    1,    0,    0 ]
    NA   [     1,    0,    0,    0,    0,    1,    0,    0 ]
    NB   [     1,    0,    0,    0,    0,    0,    0,    0 ]

  @DF-UKS Final Energy:    -1.05773535755426

   => Energetics <=

    Nuclear Repulsion Energy =              0.3881917793036160
    One-Electron Energy =                  -2.4926812995007643
    Two-Electron Energy =                   1.7200173059325095
    DFT Exchange-Correlation Energy =      -0.6732631432896249
    Empirical Dispersion Energy =           0.0000000000000000
    VV10 Nonlocal Energy =                  0.0000000000000000
    Total Energy =                         -1.0577353575542641

  UHF NO Occupations:
  HONO-1 :    1 Ag 1.9985638
  HONO-0 :    1B1u 1.0000000
  LUNO+0 :    2 Ag 0.0014362
  LUNO+1 :    3 Ag 0.0000000
  LUNO+2 :    2B1u 0.0000000
  LUNO+3 :    3B1u 0.0000000


Computation Completed


Properties will be evaluated at   0.000000,   0.000000,   0.000000 [a0]

Properties computed using the SCF density matrix


 Multipole Moments:

 ------------------------------------------------------------------------------------
     Multipole            Electronic (a.u.)      Nuclear  (a.u.)        Total (a.u.)
 ------------------------------------------------------------------------------------

 L = 1.  Multiply by 2.5417464519 to convert [e a0] to [Debye]
 Dipole X            :          0.0000000            0.0000000            0.0000000
 Dipole Y            :          0.0000000            0.0000000            0.0000000
 Dipole Z            :          0.0000000            0.0000000            0.0000000
 Magnitude           :                                                    0.0000000

 ------------------------------------------------------------------------------------

*** tstop() called on Mac.lan at Sun Aug 10 17:26:24 2025
Module time:
	user time   =       1.05 seconds =       0.02 minutes
	system time =       2.02 seconds =       0.03 minutes
	total time  =          1 seconds =       0.02 minutes
Total time:
	user time   =       1.05 seconds =       0.02 minutes
	system time =       2.02 seconds =       0.03 minutes
	total time  =          1 seconds =       0.02 minutes

*** tstart() called on Mac.lan
*** at Sun Aug 10 17:26:24 2025

   => Libint2 <=

    Primary   basis highest AM E, G, H:  6, 6, 3
    Auxiliary basis highest AM E, G, H:  7, 7, 4
    Onebody   basis highest AM E, G, H:  -, -, -
    Solid Harmonics ordering:            Gaussian
   => Loading Basis Set <=

    Name: CC-PVTZ
    Role: ORBITAL
    Keyword: BASIS
    atoms 1-2 entry H          line    23 file /Users/joseantoniorodriguesromero/anaconda3/share/psi4/basis/cc-pvtz.gbs 


         ---------------------------------------------------------
                                   SCF
               by Justin Turney, Rob Parrish, Andy Simmonett
                          and Daniel G. A. Smith
                              UKS Reference
                        1 Threads,    500 MiB Core
         ---------------------------------------------------------

  ==> Geometry <==

    Molecular point group: d2h
    Full point group: D_inf_h

    Geometry (in Angstrom), charge = -1, multiplicity = 2:

       Center              X                  Y                   Z               Mass       
    ------------   -----------------  -----------------  -----------------  -----------------
         H            0.000000000000     0.000000000000    -0.681592500000     1.007825032230
         H            0.000000000000     0.000000000000     0.681592500000     1.007825032230

  Running in d2h symmetry.

  Rotational constants: A = ************  B =     18.00246  C =     18.00246 [cm^-1]
  Rotational constants: A = ************  B = 539700.04793  C = 539700.04793 [MHz]
  Nuclear repulsion =    0.388191779303616

  Charge       = -1
  Multiplicity = 2
  Electrons    = 3
  Nalpha       = 2
  Nbeta        = 1

  ==> Algorithm <==

  SCF Algorithm Type is DF.
  DIIS enabled.
  MOM disabled.
  Fractional occupation disabled.
  Guess Type is READ.
  Energy threshold   = 1.00e-08
  Density threshold  = 1.00e-08
  Integral threshold = 1.00e-12

  ==> Primary Basis <==

  Basis Set: CC-PVTZ
    Blend: CC-PVTZ
    Number of shells: 12
    Number of basis functions: 28
    Number of Cartesian functions: 30
    Spherical Harmonics?: true
    Max angular momentum: 2

  ==> DFT Potential <==

   => LibXC <=

    Version 6.2.2
    S. Lehtola, C. Steigemann, M. J.T. Oliveira, and M. A.L. Marques.,  SoftwareX 7, 1–5 (2018) (10.1016/j.softx.2017.11.002)

   => Composite Functional: B3LYP <= 

    B3LYP Hyb-GGA Exchange-Correlation Functional

    P. J. Stephens, F. J. Devlin, C. F. Chabalowski, and M. J. Frisch.,  J. Phys. Chem. 98, 11623 (1994) (10.1021/j100096a001)

    Deriv               =              1
    GGA                 =           TRUE
    Meta                =          FALSE

    Exchange Hybrid     =           TRUE
    MP2 Hybrid          =          FALSE

   => Exchange Functionals <=

    0.0800   Slater exchange
    0.7200         Becke 88

   => Exact (HF) Exchange <=

    0.2000               HF 

   => Correlation Functionals <=

    0.1900   Vosko, Wilk & Nusair (VWN5_RPA)
    0.8100   Lee, Yang & Parr

   => LibXC Density Thresholds  <==

    XC_HYB_GGA_XC_B3LYP:  1.00E-15 

   => Molecular Quadrature <=

    Radial Scheme          =       TREUTLER
    Pruning Scheme         =           NONE
    Nuclear Scheme         =       TREUTLER

    Blocking Scheme        =         OCTREE
    BS radius alpha        =              1
    Pruning alpha          =              1
    Radial Points          =             75
    Spherical Points       =            302
    Total Points           =          44660
    Total Blocks           =            394
    Max Points             =            251
    Max Functions          =             28
    Weights Tolerance      =       1.00E-15

   => Loading Basis Set <=

    Name: (CC-PVTZ AUX)
    Role: JKFIT
    Keyword: DF_BASIS_SCF
    atoms 1-2 entry H          line    51 file /Users/joseantoniorodriguesromero/anaconda3/share/psi4/basis/cc-pvtz-jkfit.gbs 

   => Loading Basis Set <=

    Name: CC-PVTZ
    Role: ORBITAL
    Keyword: BASIS
    atoms 1-2 entry H          line    23 file /Users/joseantoniorodriguesromero/anaconda3/share/psi4/basis/cc-pvtz.gbs 

  Reading orbitals from file /tmp/scan_HH_36.default.48798.180.npy, no projection.

  ==> Integral Setup <==

  DFHelper Memory: AOs need 0.001 GiB; user supplied 0.330 GiB. 
  Using in-core AOs.

  ==> MemDFJK: Density-Fitted J/K Matrices <==

    J tasked:                   Yes
    K tasked:                   Yes
    wK tasked:                   No
    OpenMP threads:               1
    Memory [MiB]:               337
    Algorithm:                 Core
    Schwarz Cutoff:           1E-12
    Mask sparsity (%):       0.0000
    Fitting Condition:        1E-10

   => Auxiliary Basis Set <=

  Basis Set: (CC-PVTZ AUX)
    Blend: CC-PVTZ-JKFIT
    Number of shells: 20
    Number of basis functions: 60
    Number of Cartesian functions: 70
    Spherical Harmonics?: true
    Max angular momentum: 3

  Cached 100.0% of DFT collocation blocks in 0.036 [GiB].

  Minimum eigenvalue in the overlap matrix is 6.2598516429E-02.
  Reciprocal condition number of the overlap matrix is 2.1407306704E-02.
    Using symmetric orthogonalization.

  ==> Pre-Iterations <==

  SCF Guess: Orbitals guess was supplied from a previous computation.

   -------------------------------------------------------
    Irrep   Nso     Nmo     Nalpha   Nbeta   Ndocc  Nsocc
   -------------------------------------------------------
     Ag         7       7       1       1       1       0
     B1g        1       1       0       0       0       0
     B2g        3       3       0       0       0       0
     B3g        3       3       0       0       0       0
     Au         1       1       0       0       0       0
     B1u        7       7       1       0       0       1
     B2u        3       3       0       0       0       0
     B3u        3       3       0       0       0       0
   -------------------------------------------------------
    Total      28      28       2       1       1       1
   -------------------------------------------------------

  ==> Iterations <==

                           Total Energy        Delta E     RMS |[F,P]|

   @DF-UKS iter   0:    -1.05773536643241   -1.05774e+00   1.49597e-09 
   @DF-UKS iter   1:    -1.05773536643241   -6.66134e-16   5.15742e-10 DIIS
  Energy and wave function converged.


  ==> Post-Iterations <==

   Electrons on quadrature grid:
      Nalpha   =    2.0000000166 ; deviation = 1.662e-08
      Nbeta    =    1.0000000083 ; deviation = 8.253e-09
      Ntotal   =    3.0000000249 ; deviation = 2.487e-08 

   @Spin Contamination Metric:   2.870331187E-03
   @S^2 Expected:                7.500000000E-01
   @S^2 Observed:                7.528703312E-01
   @S   Expected:                5.000000000E-01
   @S   Observed:                5.000000000E-01

    Orbital Energies [Eh]
    ---------------------

    Alpha Occupied:                                                       

       1Ag    -0.048457     1B1u    0.137190  

    Alpha Virtual:                                                        

       2Ag     0.487735     2B1u    0.557945     1B2u    0.798860  
       1B3u    0.798860     3Ag     0.974159     1B3g    1.072788  
       1B2g    1.072788     3B1u    1.471018     4Ag     2.556640  
       4B1u    2.699115     5Ag     3.175057     2B2u    3.175350  
       2B3u    3.175350     1B1g    3.408004     6Ag     3.408004  
       1Au     3.622513     5B1u    3.622514     3B2u    3.898755  
       3B3u    3.898755     2B3g    3.917645     2B2g    3.917645  
       6B1u    4.076782     3B3g    4.248081     3B2g    4.248081  
       7Ag     4.415281     7B1u    5.404791  

    Beta Occupied:                                                        

       1Ag     0.000669  

    Beta Virtual:                                                         

       1B1u    0.244130     2Ag     0.508672     2B1u    0.608820  
       1B3u    0.820561     1B2u    0.820561     3Ag     1.015828  
       1B2g    1.114107     1B3g    1.114107     3B1u    1.514871  
       4Ag     2.620033     4B1u    2.758803     5Ag     3.199032  
       2B2u    3.207146     2B3u    3.207146     1B1g    3.445845  
       6Ag     3.445845     1Au     3.663505     5B1u    3.663506  
       3B2u    3.952813     3B3u    3.952813     2B3g    3.963431  
       2B2g    3.963431     6B1u    4.134546     3B3g    4.297368  
       3B2g    4.297368     7Ag     4.470166     7B1u    5.444584  

    Final Occupation by Irrep:
             Ag   B1g   B2g   B3g    Au   B1u   B2u   B3u 
    DOCC [     1,    0,    0,    0,    0,    0,    0,    0 ]
    SOCC [     0,    0,    0,    0,    0,    1,    0,    0 ]
    NA   [     1,    0,    0,    0,    0,    1,    0,    0 ]
    NB   [     1,    0,    0,    0,    0,    0,    0,    0 ]

  @DF-UKS Final Energy:    -1.05773536643241

   => Energetics <=

    Nuclear Repulsion Energy =              0.3881917793036160
    One-Electron Energy =                  -2.4926812379397978
    Two-Electron Energy =                   1.7200171855969655
    DFT Exchange-Correlation Energy =      -0.6732630933931902
    Empirical Dispersion Energy =           0.0000000000000000
    VV10 Nonlocal Energy =                  0.0000000000000000
    Total Energy =                         -1.0577353664324063

  UHF NO Occupations:
  HONO-1 :    1 Ag 1.9985638
  HONO-0 :    1B1u 1.0000000
  LUNO+0 :    2 Ag 0.0014362
  LUNO+1 :    3 Ag 0.0000000
  LUNO+2 :    4 Ag 0.0000000
  LUNO+3 :    2B1u 0.0000000


Computation Completed


Properties will be evaluated at   0.000000,   0.000000,   0.000000 [a0]

Properties computed using the B3LYP density matrix


 Multipole Moments:

 ------------------------------------------------------------------------------------
     Multipole            Electronic (a.u.)      Nuclear  (a.u.)        Total (a.u.)
 ------------------------------------------------------------------------------------

 L = 1.  Multiply by 2.5417464519 to convert [e a0] to [Debye]
 Dipole X            :          0.0000000            0.0000000            0.0000000
 Dipole Y            :          0.0000000            0.0000000            0.0000000
 Dipole Z            :          0.0000000            0.0000000            0.0000000
 Magnitude           :                                                    0.0000000

 L = 2.  Multiply by 1.3450342976 to convert [e a0^2] to [Debye ang]
 Quadrupole XX       :         -4.3408832            0.0000000           -4.3408832
 Quadrupole XY       :          0.0000000            0.0000000            0.0000000
 Quadrupole XZ       :          0.0000000            0.0000000            0.0000000
 Quadrupole YY       :         -4.3408832            0.0000000           -4.3408832
 Quadrupole YZ       :          0.0000000            0.0000000            0.0000000
 Quadrupole ZZ       :        -11.1116302            3.3180073           -7.7936229
 Traceless XX        :          2.2569157           -1.1060024            1.1509133
 Traceless YY        :          2.2569157           -1.1060024            1.1509133
 Traceless ZZ        :         -4.5138314            2.2120049           -2.3018265

 ------------------------------------------------------------------------------------
  ==> Computing MBIS Charges <==

  Electron Count from Grid (Expected Number):  3.00000 ( 3.00000)
  Difference:  0.00000

  MBIS Charges: (a.u.)
   Center  Symbol  Z      Pop.       Charge
      1       H    1    1.500000   -0.500000
      2       H    1    1.500000   -0.500000

  MBIS Dipoles: [e a0]
   Center  Symbol  Z        X           Y           Z
      1       H    1    0.000000   -0.000000    0.201809
      2       H    1   -0.000000   -0.000000   -0.201809

  MBIS Quadrupoles: [e a0^2]
   Center  Symbol  Z      XX        XY        XZ        YY        YZ        ZZ
      1       H    1   -2.1704    0.0000   -0.0000   -2.1704    0.0000   -2.5474
      2       H    1   -2.1704    0.0000   -0.0000   -2.1704   -0.0000   -2.5474

  MBIS Octupoles: [e a0^3]
   Center  Symbol  Z      XXX       XXY       XXZ       XYY       XYZ       XZZ       YYY       YYZ       YZZ       ZZZ
      1       H    1   -0.0000   -0.0000    0.4505    0.0000    0.0000   -0.0000    0.0000    0.4505   -0.0000    0.7661
      2       H    1   -0.0000    0.0000   -0.4505   -0.0000   -0.0000    0.0000    0.0000   -0.4505    0.0000   -0.7661

  MBIS Radial Moments:
   Center  Symbol  Z      [a0^2]      [a0^3]      [a0^4]      
      1       H    1    6.888324   20.926930   73.957572
      2       H    1    6.888324   20.926930   73.957572

  MBIS Valence Widths: [a0]
   Center  Symbol  Z     Width
      1       H    1    0.617690
      2       H    1    0.617690

*** tstop() called on Mac.lan at Sun Aug 10 17:26:24 2025
Module time:
	user time   =       0.46 seconds =       0.01 minutes
	system time =       1.48 seconds =       0.02 minutes
	total time  =          0 seconds =       0.00 minutes
Total time:
	user time   =       1.54 seconds =       0.03 minutes
	system time =       3.50 seconds =       0.06 minutes
	total time  =          1 seconds =       0.02 minutes

    Psi4 stopped on: Sunday, 10 August 2025 05:26PM
    Psi4 wall time for execution: 0:00:00.78

*** Psi4 exiting successfully. Buy a developer a beer!
