
    -----------------------------------------------------------------------
          Psi4: An Open-Source Ab Initio Electronic Structure Package
                               Psi4 1.9.1 release

                         Git: Rev {} zzzzzzz 


    D. G. A. Smith, L. A. Burns, A. C. Simmonett, R. M. Parrish,
    M. C. Schieber, R. Galvelis, P. Kraus, H. Kruse, R. Di Remigio,
    A. Alenaizan, A. M. James, S. Lehtola, J. P. Misiewicz, M. Scheurer,
    R. A. Shaw, J. B. Schriber, Y. Xie, Z. L. Glick, D. A. Sirianni,
    J. S. O'Brien, J. M. Waldrop, A. Kumar, E. G. Hohenstein,
    B. P. Pritchard, B. R. Brooks, H. F. Schaefer III, A. Yu. Sokolov,
    K. Patkowski, A. E. DePrince III, U. Bozkaya, R. A. King,
    F. A. Evangelista, J. M. Turney, T. D. Crawford, C. D. Sherrill,
    J. Chem. Phys. 152(18) 184108 (2020). https://doi.org/10.1063/5.0006002

                            Additional Code Authors
    E. T. Seidl, C. L. Janssen, E. F. Valeev, M. L. Leininger,
    J. F. Gonthier, R. M. Richard, H. R. McAlexander, M. Saitow, X. Wang,
    P. Verma, M. H. Lechner, A. Jiang, S. Behnle, A. G. Heide,
    M. F. Herbst, and D. L. Poole

             Previous Authors, Complete List of Code Contributors,
                       and Citations for Specific Modules
    https://github.com/psi4/psi4/blob/master/codemeta.json
    https://github.com/psi4/psi4/graphs/contributors
    http://psicode.org/psi4manual/master/introduction.html#citing-psifour

    -----------------------------------------------------------------------


    Psi4 started on: Sunday, 10 August 2025 05:31PM

    Process ID: 48969
    Host:       Mac.lan
    PSIDATADIR: /Users/joseantoniorodriguesromero/anaconda3/share/psi4
    Memory:     500.0 MiB
    Threads:    1
    
  ==> Input File <==

--------------------------------------------------------------------------
molecule { 
-1 2
C           0.000000           0.000000           0.000000
C           0.000000           0.000000           1.648856
}

set { 
basis              cc-pvtz
reference          uks
maxiter            500
DAMPING_PERCENTAGE 1
E_CONVERGENCE      1.0E-8
D_CONVERGENCE      1.0E-8
DIIS_MAX_VECS      400
MBIS_MAXITER       8000
guess              read
}

E, wfn = energy('b3lyp', restart_file='last_wfn', return_wfn=True)
properties('b3lyp','MBIS_CHARGES', wfn=wfn)
wfn.to_file('last_wfn')
--------------------------------------------------------------------------

Scratch directory: /tmp/
 Found user provided orbital data. Setting orbital guess to READ 
 Copying restart file <last_wfn.npy> to </tmp/scan_CC_42.default.48969.180.npy> for internal processing
   => Libint2 <=

    Primary   basis highest AM E, G, H:  6, 6, 3
    Auxiliary basis highest AM E, G, H:  7, 7, 4
    Onebody   basis highest AM E, G, H:  -, -, -
    Solid Harmonics ordering:            Gaussian

*** tstart() called on Mac.lan
*** at Sun Aug 10 17:31:33 2025

   => Loading Basis Set <=

    Name: CC-PVTZ
    Role: ORBITAL
    Keyword: BASIS
    atoms 1-2 entry C          line   186 file /Users/joseantoniorodriguesromero/anaconda3/share/psi4/basis/cc-pvtz.gbs 


         ---------------------------------------------------------
                                   SCF
               by Justin Turney, Rob Parrish, Andy Simmonett
                          and Daniel G. A. Smith
                              UKS Reference
                        1 Threads,    500 MiB Core
         ---------------------------------------------------------

  ==> Geometry <==

    Molecular point group: d2h
    Full point group: D_inf_h

    Geometry (in Angstrom), charge = -1, multiplicity = 2:

       Center              X                  Y                   Z               Mass       
    ------------   -----------------  -----------------  -----------------  -----------------
         C            0.000000000000     0.000000000000    -0.824428000000    12.000000000000
         C            0.000000000000     0.000000000000     0.824428000000    12.000000000000

  Running in d2h symmetry.

  Rotational constants: A = ************  B =      1.03343  C =      1.03343 [cm^-1]
  Rotational constants: A = ************  B =  30981.36092  C =  30981.36092 [MHz]
  Nuclear repulsion =   11.553695158412861

  Charge       = -1
  Multiplicity = 2
  Electrons    = 13
  Nalpha       = 7
  Nbeta        = 6

  ==> Algorithm <==

  SCF Algorithm Type is DF.
  DIIS enabled.
  MOM disabled.
  Fractional occupation disabled.
  Guess Type is READ.
  Energy threshold   = 1.00e-08
  Density threshold  = 1.00e-08
  Integral threshold = 1.00e-12

  ==> Primary Basis <==

  Basis Set: CC-PVTZ
    Blend: CC-PVTZ
    Number of shells: 20
    Number of basis functions: 60
    Number of Cartesian functions: 70
    Spherical Harmonics?: true
    Max angular momentum: 3

  ==> DFT Potential <==

   => LibXC <=

    Version 6.2.2
    S. Lehtola, C. Steigemann, M. J.T. Oliveira, and M. A.L. Marques.,  SoftwareX 7, 1–5 (2018) (10.1016/j.softx.2017.11.002)

   => Composite Functional: B3LYP <= 

    B3LYP Hyb-GGA Exchange-Correlation Functional

    P. J. Stephens, F. J. Devlin, C. F. Chabalowski, and M. J. Frisch.,  J. Phys. Chem. 98, 11623 (1994) (10.1021/j100096a001)

    Deriv               =              1
    GGA                 =           TRUE
    Meta                =          FALSE

    Exchange Hybrid     =           TRUE
    MP2 Hybrid          =          FALSE

   => Exchange Functionals <=

    0.0800   Slater exchange
    0.7200         Becke 88

   => Exact (HF) Exchange <=

    0.2000               HF 

   => Correlation Functionals <=

    0.1900   Vosko, Wilk & Nusair (VWN5_RPA)
    0.8100   Lee, Yang & Parr

   => LibXC Density Thresholds  <==

    XC_HYB_GGA_XC_B3LYP:  1.00E-15 

   => Molecular Quadrature <=

    Radial Scheme          =       TREUTLER
    Pruning Scheme         =           NONE
    Nuclear Scheme         =       TREUTLER

    Blocking Scheme        =         OCTREE
    BS radius alpha        =              1
    Pruning alpha          =              1
    Radial Points          =             75
    Spherical Points       =            302
    Total Points           =          43022
    Total Blocks           =            390
    Max Points             =            251
    Max Functions          =             60
    Weights Tolerance      =       1.00E-15

   => Loading Basis Set <=

    Name: (CC-PVTZ AUX)
    Role: JKFIT
    Keyword: DF_BASIS_SCF
    atoms 1-2 entry C          line   125 file /Users/joseantoniorodriguesromero/anaconda3/share/psi4/basis/cc-pvtz-jkfit.gbs 

   => Loading Basis Set <=

    Name: CC-PVTZ
    Role: ORBITAL
    Keyword: BASIS
    atoms 1-2 entry C          line   186 file /Users/joseantoniorodriguesromero/anaconda3/share/psi4/basis/cc-pvtz.gbs 

  Reading orbitals from file /tmp/scan_CC_42.default.48969.180.npy, no projection.

  ==> Integral Setup <==

  DFHelper Memory: AOs need 0.005 GiB; user supplied 0.294 GiB. 
  Using in-core AOs.

  ==> MemDFJK: Density-Fitted J/K Matrices <==

    J tasked:                   Yes
    K tasked:                   Yes
    wK tasked:                   No
    OpenMP threads:               1
    Memory [MiB]:               300
    Algorithm:                 Core
    Schwarz Cutoff:           1E-12
    Mask sparsity (%):       0.0000
    Fitting Condition:        1E-10

   => Auxiliary Basis Set <=

  Basis Set: (CC-PVTZ AUX)
    Blend: CC-PVTZ-JKFIT
    Number of shells: 50
    Number of basis functions: 158
    Number of Cartesian functions: 192
    Spherical Harmonics?: true
    Max angular momentum: 4

  Cached 100.0% of DFT collocation blocks in 0.072 [GiB].

  Minimum eigenvalue in the overlap matrix is 6.0076695948E-03.
  Reciprocal condition number of the overlap matrix is 1.7638798931E-03.
    Using symmetric orthogonalization.

  ==> Pre-Iterations <==

  SCF Guess: Orbitals guess was supplied from a previous computation.

   -------------------------------------------------------
    Irrep   Nso     Nmo     Nalpha   Nbeta   Ndocc  Nsocc
   -------------------------------------------------------
     Ag        13      13       3       2       2       1
     B1g        3       3       0       0       0       0
     B2g        7       7       0       0       0       0
     B3g        7       7       0       0       0       0
     Au         3       3       0       0       0       0
     B1u       13      13       2       2       2       0
     B2u        7       7       1       1       1       0
     B3u        7       7       1       1       1       0
   -------------------------------------------------------
    Total      60      60       7       6       6       1
   -------------------------------------------------------

  ==> Iterations <==

                           Total Energy        Delta E     RMS |[F,P]|

   @DF-UKS iter   0:   -75.94944071003562   -7.59494e+01   1.59203e-03 
   @DF-UKS iter   1:   -75.95485409485191   -5.41338e-03   6.61600e-04 ADIIS/DIIS
   @DF-UKS iter   2:   -75.95489036209656   -3.62672e-05   6.51475e-04 ADIIS/DIIS/DAMP=1%
   @DF-UKS iter   3:   -75.95460683208998    2.83530e-04   2.89343e-05 DIIS/DAMP=1%
   @DF-UKS iter   4:   -75.95502954392774   -4.22712e-04   7.86830e-06 DIIS/DAMP=1%
   @DF-UKS iter   5:   -75.95503539534103   -5.85141e-06   1.55463e-06 DIIS/DAMP=1%
   @DF-UKS iter   6:   -75.95504091356077   -5.51822e-06   2.77375e-07 DIIS/DAMP=1%
   @DF-UKS iter   7:   -75.95504100249423   -8.89335e-08   2.51235e-08 DIIS/DAMP=1%
   @DF-UKS iter   8:   -75.95504079348001    2.09014e-07   2.89650e-09 DIIS/DAMP=1%
   @DF-UKS iter   9:   -75.95504080660081   -1.31208e-08   2.39803e-10 DIIS/DAMP=1%
   @DF-UKS iter  10:   -75.95504080537422    1.22658e-09   3.12180e-11 DIIS/DAMP=1%
  Energy and wave function converged.


  ==> Post-Iterations <==

   Electrons on quadrature grid:
      Nalpha   =    7.0000001804 ; deviation = 1.804e-07
      Nbeta    =    6.0000001920 ; deviation = 1.920e-07
      Ntotal   =   13.0000003724 ; deviation = 3.724e-07 

   @Spin Contamination Metric:   6.607404582E-03
   @S^2 Expected:                7.500000000E-01
   @S^2 Observed:                7.566074046E-01
   @S   Expected:                5.000000000E-01
   @S   Observed:                5.000000000E-01

    Orbital Energies [Eh]
    ---------------------

    Alpha Occupied:                                                       

       1Ag    -9.996939     1B1u   -9.996739     2Ag    -0.393742  
       2B1u   -0.189315     3Ag    -0.042812     1B3u    0.013620  
       1B2u    0.013620  

    Alpha Virtual:                                                        

       1B2g    0.200501     1B3g    0.200501     3B1u    0.356489  
       4Ag     0.516592     2B3u    0.540893     2B2u    0.540893  
       4B1u    0.544429     2B2g    0.595468     2B3g    0.595468  
       5Ag     0.608106     1B1g    0.862532     6Ag     0.862532  
       5B1u    0.875923     3B3u    0.916809     3B2u    0.916809  
       1Au     1.068083     6B1u    1.068083     3B2g    1.336736  
       3B3g    1.336736     7Ag     1.340723     7B1u    1.352721  
       4B3u    2.181354     4B2u    2.181354     8Ag     2.255948  
       4B2g    2.329080     4B3g    2.329080     5B3u    2.705112  
       5B2u    2.705112     2B1g    2.712651     9Ag     2.712651  
      10Ag     2.773350     8B1u    2.805918     6B2u    2.900672  
       6B3u    2.900672     5B3g    3.030875     5B2g    3.030875  
      11Ag     3.209793     3B1g    3.209798     9B1u    3.237129  
       2Au     3.237131    10B1u    3.242754     6B2g    3.350093  
       6B3g    3.350093    11B1u    3.395176     3Au     3.395178  
       7B3u    3.413838     7B2u    3.413838    12B1u    3.724980  
      12Ag     3.901564     7B3g    4.070870     7B2g    4.070870  
      13Ag     4.213955    13B1u    6.702082  

    Beta Occupied:                                                        

       1Ag    -9.989376     1B1u   -9.989264     2Ag    -0.362276  
       2B1u   -0.137980     1B3u    0.020840     1B2u    0.020840  

    Beta Virtual:                                                         

       3Ag     0.088442     1B2g    0.210593     1B3g    0.210593  
       3B1u    0.370435     2B3u    0.544784     2B2u    0.544784  
       4Ag     0.545779     2B2g    0.599426     2B3g    0.599426  
       4B1u    0.600974     5Ag     0.622263     1B1g    0.863928  
       6Ag     0.863928     5B1u    0.885353     3B3u    0.941236  
       3B2u    0.941236     1Au     1.070762     6B1u    1.070762  
       3B2g    1.357795     3B3g    1.357795     7Ag     1.371725  
       7B1u    1.388727     4B3u    2.190222     4B2u    2.190222  
       8Ag     2.297181     4B2g    2.333055     4B3g    2.333055  
       2B1g    2.733498     9Ag     2.733498     5B2u    2.733911  
       5B3u    2.733911    10Ag     2.820908     8B1u    2.836738  
       6B2u    2.900763     6B3u    2.900763     5B3g    3.030601  
       5B2g    3.030601    11Ag     3.211959     3B1g    3.211964  
       9B1u    3.236534     2Au     3.236537    10B1u    3.289495  
       6B2g    3.388491     6B3g    3.388491    11B1u    3.415828  
       3Au     3.415830     7B3u    3.453472     7B2u    3.453472  
      12B1u    3.771287    12Ag     3.949248     7B3g    4.102657  
       7B2g    4.102657    13Ag     4.232970    13B1u    6.722476  

    Final Occupation by Irrep:
             Ag   B1g   B2g   B3g    Au   B1u   B2u   B3u 
    DOCC [     2,    0,    0,    0,    0,    2,    1,    1 ]
    SOCC [     1,    0,    0,    0,    0,    0,    0,    0 ]
    NA   [     3,    0,    0,    0,    0,    2,    1,    1 ]
    NB   [     2,    0,    0,    0,    0,    2,    1,    1 ]

  @DF-UKS Final Energy:   -75.95504080537422

   => Energetics <=

    Nuclear Repulsion Energy =             11.5536951584128609
    One-Electron Energy =                -127.7644470203503175
    Two-Electron Energy =                  48.8808520763894876
    DFT Exchange-Correlation Energy =      -8.6251410198262395
    Empirical Dispersion Energy =           0.0000000000000000
    VV10 Nonlocal Energy =                  0.0000000000000000
    Total Energy =                        -75.9550408053742103

  UHF NO Occupations:
  HONO-2 :    2 Ag 1.9995996
  HONO-1 :    2B1u 1.9973065
  HONO-0 :    3 Ag 1.0000000
  LUNO+0 :    3B1u 0.0026935
  LUNO+1 :    4 Ag 0.0004004
  LUNO+2 :    2B3u 0.0001065
  LUNO+3 :    2B2u 0.0001065


Computation Completed


Properties will be evaluated at   0.000000,   0.000000,   0.000000 [a0]

Properties computed using the SCF density matrix


 Multipole Moments:

 ------------------------------------------------------------------------------------
     Multipole            Electronic (a.u.)      Nuclear  (a.u.)        Total (a.u.)
 ------------------------------------------------------------------------------------

 L = 1.  Multiply by 2.5417464519 to convert [e a0] to [Debye]
 Dipole X            :          0.0000000            0.0000000            0.0000000
 Dipole Y            :          0.0000000            0.0000000            0.0000000
 Dipole Z            :          0.0000000            0.0000000            0.0000000
 Magnitude           :                                                    0.0000000

 ------------------------------------------------------------------------------------

*** tstop() called on Mac.lan at Sun Aug 10 17:31:34 2025
Module time:
	user time   =      13.58 seconds =       0.23 minutes
	system time =       2.02 seconds =       0.03 minutes
	total time  =          1 seconds =       0.02 minutes
Total time:
	user time   =      13.58 seconds =       0.23 minutes
	system time =       2.02 seconds =       0.03 minutes
	total time  =          1 seconds =       0.02 minutes

*** tstart() called on Mac.lan
*** at Sun Aug 10 17:31:34 2025

   => Libint2 <=

    Primary   basis highest AM E, G, H:  6, 6, 3
    Auxiliary basis highest AM E, G, H:  7, 7, 4
    Onebody   basis highest AM E, G, H:  -, -, -
    Solid Harmonics ordering:            Gaussian
   => Loading Basis Set <=

    Name: CC-PVTZ
    Role: ORBITAL
    Keyword: BASIS
    atoms 1-2 entry C          line   186 file /Users/joseantoniorodriguesromero/anaconda3/share/psi4/basis/cc-pvtz.gbs 


         ---------------------------------------------------------
                                   SCF
               by Justin Turney, Rob Parrish, Andy Simmonett
                          and Daniel G. A. Smith
                              UKS Reference
                        1 Threads,    500 MiB Core
         ---------------------------------------------------------

  ==> Geometry <==

    Molecular point group: d2h
    Full point group: D_inf_h

    Geometry (in Angstrom), charge = -1, multiplicity = 2:

       Center              X                  Y                   Z               Mass       
    ------------   -----------------  -----------------  -----------------  -----------------
         C            0.000000000000     0.000000000000    -0.824428000000    12.000000000000
         C            0.000000000000     0.000000000000     0.824428000000    12.000000000000

  Running in d2h symmetry.

  Rotational constants: A = ************  B =      1.03343  C =      1.03343 [cm^-1]
  Rotational constants: A = ************  B =  30981.36092  C =  30981.36092 [MHz]
  Nuclear repulsion =   11.553695158412861

  Charge       = -1
  Multiplicity = 2
  Electrons    = 13
  Nalpha       = 7
  Nbeta        = 6

  ==> Algorithm <==

  SCF Algorithm Type is DF.
  DIIS enabled.
  MOM disabled.
  Fractional occupation disabled.
  Guess Type is READ.
  Energy threshold   = 1.00e-08
  Density threshold  = 1.00e-08
  Integral threshold = 1.00e-12

  ==> Primary Basis <==

  Basis Set: CC-PVTZ
    Blend: CC-PVTZ
    Number of shells: 20
    Number of basis functions: 60
    Number of Cartesian functions: 70
    Spherical Harmonics?: true
    Max angular momentum: 3

  ==> DFT Potential <==

   => LibXC <=

    Version 6.2.2
    S. Lehtola, C. Steigemann, M. J.T. Oliveira, and M. A.L. Marques.,  SoftwareX 7, 1–5 (2018) (10.1016/j.softx.2017.11.002)

   => Composite Functional: B3LYP <= 

    B3LYP Hyb-GGA Exchange-Correlation Functional

    P. J. Stephens, F. J. Devlin, C. F. Chabalowski, and M. J. Frisch.,  J. Phys. Chem. 98, 11623 (1994) (10.1021/j100096a001)

    Deriv               =              1
    GGA                 =           TRUE
    Meta                =          FALSE

    Exchange Hybrid     =           TRUE
    MP2 Hybrid          =          FALSE

   => Exchange Functionals <=

    0.0800   Slater exchange
    0.7200         Becke 88

   => Exact (HF) Exchange <=

    0.2000               HF 

   => Correlation Functionals <=

    0.1900   Vosko, Wilk & Nusair (VWN5_RPA)
    0.8100   Lee, Yang & Parr

   => LibXC Density Thresholds  <==

    XC_HYB_GGA_XC_B3LYP:  1.00E-15 

   => Molecular Quadrature <=

    Radial Scheme          =       TREUTLER
    Pruning Scheme         =           NONE
    Nuclear Scheme         =       TREUTLER

    Blocking Scheme        =         OCTREE
    BS radius alpha        =              1
    Pruning alpha          =              1
    Radial Points          =             75
    Spherical Points       =            302
    Total Points           =          43022
    Total Blocks           =            390
    Max Points             =            251
    Max Functions          =             60
    Weights Tolerance      =       1.00E-15

   => Loading Basis Set <=

    Name: (CC-PVTZ AUX)
    Role: JKFIT
    Keyword: DF_BASIS_SCF
    atoms 1-2 entry C          line   125 file /Users/joseantoniorodriguesromero/anaconda3/share/psi4/basis/cc-pvtz-jkfit.gbs 

   => Loading Basis Set <=

    Name: CC-PVTZ
    Role: ORBITAL
    Keyword: BASIS
    atoms 1-2 entry C          line   186 file /Users/joseantoniorodriguesromero/anaconda3/share/psi4/basis/cc-pvtz.gbs 

  Reading orbitals from file /tmp/scan_CC_42.default.48969.180.npy, no projection.

  ==> Integral Setup <==

  DFHelper Memory: AOs need 0.005 GiB; user supplied 0.294 GiB. 
  Using in-core AOs.

  ==> MemDFJK: Density-Fitted J/K Matrices <==

    J tasked:                   Yes
    K tasked:                   Yes
    wK tasked:                   No
    OpenMP threads:               1
    Memory [MiB]:               300
    Algorithm:                 Core
    Schwarz Cutoff:           1E-12
    Mask sparsity (%):       0.0000
    Fitting Condition:        1E-10

   => Auxiliary Basis Set <=

  Basis Set: (CC-PVTZ AUX)
    Blend: CC-PVTZ-JKFIT
    Number of shells: 50
    Number of basis functions: 158
    Number of Cartesian functions: 192
    Spherical Harmonics?: true
    Max angular momentum: 4

  Cached 100.0% of DFT collocation blocks in 0.072 [GiB].

  Minimum eigenvalue in the overlap matrix is 6.0076695948E-03.
  Reciprocal condition number of the overlap matrix is 1.7638798931E-03.
    Using symmetric orthogonalization.

  ==> Pre-Iterations <==

  SCF Guess: Orbitals guess was supplied from a previous computation.

   -------------------------------------------------------
    Irrep   Nso     Nmo     Nalpha   Nbeta   Ndocc  Nsocc
   -------------------------------------------------------
     Ag        13      13       3       2       2       1
     B1g        3       3       0       0       0       0
     B2g        7       7       0       0       0       0
     B3g        7       7       0       0       0       0
     Au         3       3       0       0       0       0
     B1u       13      13       2       2       2       0
     B2u        7       7       1       1       1       0
     B3u        7       7       1       1       1       0
   -------------------------------------------------------
    Total      60      60       7       6       6       1
   -------------------------------------------------------

  ==> Iterations <==

                           Total Energy        Delta E     RMS |[F,P]|

   @DF-UKS iter   0:   -75.95504080550089   -7.59550e+01   6.29382e-12 
   @DF-UKS iter   1:   -75.95504080550090   -1.42109e-14   5.58815e-12 DIIS
  Energy and wave function converged.


  ==> Post-Iterations <==

   Electrons on quadrature grid:
      Nalpha   =    7.0000001804 ; deviation = 1.804e-07
      Nbeta    =    6.0000001920 ; deviation = 1.920e-07
      Ntotal   =   13.0000003724 ; deviation = 3.724e-07 

   @Spin Contamination Metric:   6.607404584E-03
   @S^2 Expected:                7.500000000E-01
   @S^2 Observed:                7.566074046E-01
   @S   Expected:                5.000000000E-01
   @S   Observed:                5.000000000E-01

    Orbital Energies [Eh]
    ---------------------

    Alpha Occupied:                                                       

       1Ag    -9.996939     1B1u   -9.996739     2Ag    -0.393742  
       2B1u   -0.189315     3Ag    -0.042812     1B3u    0.013620  
       1B2u    0.013620  

    Alpha Virtual:                                                        

       1B2g    0.200501     1B3g    0.200501     3B1u    0.356489  
       4Ag     0.516592     2B3u    0.540893     2B2u    0.540893  
       4B1u    0.544429     2B2g    0.595468     2B3g    0.595468  
       5Ag     0.608106     1B1g    0.862532     6Ag     0.862532  
       5B1u    0.875923     3B3u    0.916809     3B2u    0.916809  
       1Au     1.068083     6B1u    1.068083     3B2g    1.336736  
       3B3g    1.336736     7Ag     1.340723     7B1u    1.352721  
       4B3u    2.181354     4B2u    2.181354     8Ag     2.255948  
       4B2g    2.329080     4B3g    2.329080     5B3u    2.705112  
       5B2u    2.705112     2B1g    2.712651     9Ag     2.712651  
      10Ag     2.773350     8B1u    2.805918     6B2u    2.900672  
       6B3u    2.900672     5B3g    3.030875     5B2g    3.030875  
      11Ag     3.209793     3B1g    3.209798     9B1u    3.237129  
       2Au     3.237131    10B1u    3.242754     6B2g    3.350093  
       6B3g    3.350093    11B1u    3.395176     3Au     3.395178  
       7B3u    3.413838     7B2u    3.413838    12B1u    3.724980  
      12Ag     3.901564     7B3g    4.070870     7B2g    4.070870  
      13Ag     4.213955    13B1u    6.702082  

    Beta Occupied:                                                        

       1Ag    -9.989376     1B1u   -9.989264     2Ag    -0.362276  
       2B1u   -0.137980     1B3u    0.020840     1B2u    0.020840  

    Beta Virtual:                                                         

       3Ag     0.088442     1B2g    0.210593     1B3g    0.210593  
       3B1u    0.370435     2B3u    0.544784     2B2u    0.544784  
       4Ag     0.545779     2B2g    0.599426     2B3g    0.599426  
       4B1u    0.600974     5Ag     0.622263     1B1g    0.863928  
       6Ag     0.863928     5B1u    0.885353     3B3u    0.941236  
       3B2u    0.941236     1Au     1.070762     6B1u    1.070762  
       3B2g    1.357795     3B3g    1.357795     7Ag     1.371725  
       7B1u    1.388727     4B3u    2.190222     4B2u    2.190222  
       8Ag     2.297181     4B2g    2.333055     4B3g    2.333055  
       2B1g    2.733498     9Ag     2.733498     5B2u    2.733911  
       5B3u    2.733911    10Ag     2.820908     8B1u    2.836738  
       6B2u    2.900763     6B3u    2.900763     5B3g    3.030601  
       5B2g    3.030601    11Ag     3.211959     3B1g    3.211964  
       9B1u    3.236534     2Au     3.236537    10B1u    3.289495  
       6B2g    3.388491     6B3g    3.388491    11B1u    3.415828  
       3Au     3.415830     7B3u    3.453472     7B2u    3.453472  
      12B1u    3.771287    12Ag     3.949248     7B3g    4.102657  
       7B2g    4.102657    13Ag     4.232970    13B1u    6.722476  

    Final Occupation by Irrep:
             Ag   B1g   B2g   B3g    Au   B1u   B2u   B3u 
    DOCC [     2,    0,    0,    0,    0,    2,    1,    1 ]
    SOCC [     1,    0,    0,    0,    0,    0,    0,    0 ]
    NA   [     3,    0,    0,    0,    0,    2,    1,    1 ]
    NB   [     2,    0,    0,    0,    0,    2,    1,    1 ]

  @DF-UKS Final Energy:   -75.95504080550090

   => Energetics <=

    Nuclear Repulsion Energy =             11.5536951584128609
    One-Electron Energy =                -127.7644470180664769
    Two-Electron Energy =                  48.8808520737415080
    DFT Exchange-Correlation Energy =      -8.6251410195887903
    Empirical Dispersion Energy =           0.0000000000000000
    VV10 Nonlocal Energy =                  0.0000000000000000
    Total Energy =                        -75.9550408055009001

  UHF NO Occupations:
  HONO-2 :    2 Ag 1.9995996
  HONO-1 :    2B1u 1.9973065
  HONO-0 :    3 Ag 1.0000000
  LUNO+0 :    3B1u 0.0026935
  LUNO+1 :    4 Ag 0.0004004
  LUNO+2 :    2B3u 0.0001065
  LUNO+3 :    2B2u 0.0001065


Computation Completed


Properties will be evaluated at   0.000000,   0.000000,   0.000000 [a0]

Properties computed using the B3LYP density matrix


 Multipole Moments:

 ------------------------------------------------------------------------------------
     Multipole            Electronic (a.u.)      Nuclear  (a.u.)        Total (a.u.)
 ------------------------------------------------------------------------------------

 L = 1.  Multiply by 2.5417464519 to convert [e a0] to [Debye]
 Dipole X            :          0.0000000            0.0000000            0.0000000
 Dipole Y            :          0.0000000            0.0000000            0.0000000
 Dipole Z            :          0.0000000            0.0000000            0.0000000
 Magnitude           :                                                    0.0000000

 L = 2.  Multiply by 1.3450342976 to convert [e a0^2] to [Debye ang]
 Quadrupole XX       :        -12.4718354            0.0000000          -12.4718354
 Quadrupole XY       :          0.0000000            0.0000000            0.0000000
 Quadrupole XZ       :          0.0000000            0.0000000            0.0000000
 Quadrupole YY       :        -12.4718354            0.0000000          -12.4718354
 Quadrupole YZ       :          0.0000000            0.0000000            0.0000000
 Quadrupole ZZ       :        -42.9647635           29.1262416          -13.8385219
 Traceless XX        :         10.1643094           -9.7087472            0.4555622
 Traceless YY        :         10.1643094           -9.7087472            0.4555622
 Traceless ZZ        :        -20.3286187           19.4174944           -0.9111244

 ------------------------------------------------------------------------------------
  ==> Computing MBIS Charges <==

  Electron Count from Grid (Expected Number): 13.00000 (13.00000)
  Difference:  0.00000

  MBIS Charges: (a.u.)
   Center  Symbol  Z      Pop.       Charge
      1       C    6    6.500000   -0.500000
      2       C    6    6.500000   -0.500000

  MBIS Dipoles: [e a0]
   Center  Symbol  Z        X           Y           Z
      1       C    6   -0.000000   -0.000000   -0.137425
      2       C    6   -0.000000    0.000000    0.137425

  MBIS Quadrupoles: [e a0^2]
   Center  Symbol  Z      XX        XY        XZ        YY        YZ        ZZ
      1       C    6   -6.2359    0.0000   -0.0000   -6.2359   -0.0000   -6.1339
      2       C    6   -6.2359    0.0000    0.0000   -6.2359    0.0000   -6.1339

  MBIS Octupoles: [e a0^3]
   Center  Symbol  Z      XXX       XXY       XXZ       XYY       XYZ       XZZ       YYY       YYZ       YZZ       ZZZ
      1       C    6   -0.0000   -0.0000   -0.5622   -0.0000    0.0000   -0.0000    0.0000   -0.5622    0.0000   -1.2537
      2       C    6   -0.0000   -0.0000    0.5622   -0.0000   -0.0000   -0.0000    0.0000    0.5622    0.0000    1.2537

  MBIS Radial Moments:
   Center  Symbol  Z      [a0^2]      [a0^3]      [a0^4]      
      1       C    6   18.605703   50.914190   164.467441
      2       C    6   18.605703   50.914190   164.467441

  MBIS Valence Widths: [a0]
   Center  Symbol  Z     Width
      1       C    6    0.573883
      2       C    6    0.573883

*** tstop() called on Mac.lan at Sun Aug 10 17:31:35 2025
Module time:
	user time   =       4.46 seconds =       0.07 minutes
	system time =       2.25 seconds =       0.04 minutes
	total time  =          1 seconds =       0.02 minutes
Total time:
	user time   =      18.07 seconds =       0.30 minutes
	system time =       4.42 seconds =       0.07 minutes
	total time  =          2 seconds =       0.03 minutes

    Psi4 stopped on: Sunday, 10 August 2025 05:31PM
    Psi4 wall time for execution: 0:00:02.18

*** Psi4 exiting successfully. Buy a developer a beer!
