
    -----------------------------------------------------------------------
          Psi4: An Open-Source Ab Initio Electronic Structure Package
                               Psi4 1.9.1 release

                         Git: Rev {} zzzzzzz 


    D. G. A. Smith, L. A. Burns, A. C. Simmonett, R. M. Parrish,
    M. C. Schieber, R. Galvelis, P. Kraus, H. Kruse, R. Di Remigio,
    A. Alenaizan, A. M. James, S. Lehtola, J. P. Misiewicz, M. Scheurer,
    R. A. Shaw, J. B. Schriber, Y. Xie, Z. L. Glick, D. A. Sirianni,
    J. S. O'Brien, J. M. Waldrop, A. Kumar, E. G. Hohenstein,
    B. P. Pritchard, B. R. Brooks, H. F. Schaefer III, A. Yu. Sokolov,
    K. Patkowski, A. E. DePrince III, U. Bozkaya, R. A. King,
    F. A. Evangelista, J. M. Turney, T. D. Crawford, C. D. Sherrill,
    J. Chem. Phys. 152(18) 184108 (2020). https://doi.org/10.1063/5.0006002

                            Additional Code Authors
    E. T. Seidl, C. L. Janssen, E. F. Valeev, M. L. Leininger,
    J. F. Gonthier, R. M. Richard, H. R. McAlexander, M. Saitow, X. Wang,
    P. Verma, M. H. Lechner, A. Jiang, S. Behnle, A. G. Heide,
    M. F. Herbst, and D. L. Poole

             Previous Authors, Complete List of Code Contributors,
                       and Citations for Specific Modules
    https://github.com/psi4/psi4/blob/master/codemeta.json
    https://github.com/psi4/psi4/graphs/contributors
    http://psicode.org/psi4manual/master/introduction.html#citing-psifour

    -----------------------------------------------------------------------


    Psi4 started on: Sunday, 10 August 2025 05:36PM

    Process ID: 49113
    Host:       Mac.lan
    PSIDATADIR: /Users/joseantoniorodriguesromero/anaconda3/share/psi4
    Memory:     500.0 MiB
    Threads:    1
    
  ==> Input File <==

--------------------------------------------------------------------------
molecule { 
-1 3
C           0.000000           0.000000           0.000000
H           0.000000           0.000000           1.321656
}

set { 
basis              cc-pvtz
reference          uks
maxiter            500
DAMPING_PERCENTAGE 1
E_CONVERGENCE      1.0E-8
D_CONVERGENCE      1.0E-8
DIIS_MAX_VECS      400
MBIS_MAXITER       8000
guess              read
}

E, wfn = energy('b3lyp', restart_file='last_wfn', return_wfn=True)
properties('b3lyp','MBIS_CHARGES', wfn=wfn)
wfn.to_file('last_wfn')
--------------------------------------------------------------------------

Scratch directory: /tmp/
 Found user provided orbital data. Setting orbital guess to READ 
 Copying restart file <last_wfn.npy> to </tmp/scan_HC_35.default.49113.180.npy> for internal processing
   => Libint2 <=

    Primary   basis highest AM E, G, H:  6, 6, 3
    Auxiliary basis highest AM E, G, H:  7, 7, 4
    Onebody   basis highest AM E, G, H:  -, -, -
    Solid Harmonics ordering:            Gaussian

*** tstart() called on Mac.lan
*** at Sun Aug 10 17:36:03 2025

   => Loading Basis Set <=

    Name: CC-PVTZ
    Role: ORBITAL
    Keyword: BASIS
    atoms 1 entry C          line   186 file /Users/joseantoniorodriguesromero/anaconda3/share/psi4/basis/cc-pvtz.gbs 
    atoms 2 entry H          line    23 file /Users/joseantoniorodriguesromero/anaconda3/share/psi4/basis/cc-pvtz.gbs 


         ---------------------------------------------------------
                                   SCF
               by Justin Turney, Rob Parrish, Andy Simmonett
                          and Daniel G. A. Smith
                              UKS Reference
                        1 Threads,    500 MiB Core
         ---------------------------------------------------------

  ==> Geometry <==

    Molecular point group: c2v
    Full point group: C_inf_v

    Geometry (in Angstrom), charge = -1, multiplicity = 3:

       Center              X                  Y                   Z               Mass       
    ------------   -----------------  -----------------  -----------------  -----------------
         C            0.000000000000     0.000000000000    -0.102399747652    12.000000000000
         H            0.000000000000     0.000000000000     1.219256252348     1.007825032230

  Running in c2v symmetry.

  Rotational constants: A = ************  B =     10.38001  C =     10.38001 [cm^-1]
  Rotational constants: A = ************  B = 311184.98596  C = 311184.98596 [MHz]
  Nuclear repulsion =    2.402337116481142

  Charge       = -1
  Multiplicity = 3
  Electrons    = 8
  Nalpha       = 5
  Nbeta        = 3

  ==> Algorithm <==

  SCF Algorithm Type is DF.
  DIIS enabled.
  MOM disabled.
  Fractional occupation disabled.
  Guess Type is READ.
  Energy threshold   = 1.00e-08
  Density threshold  = 1.00e-08
  Integral threshold = 1.00e-12

  ==> Primary Basis <==

  Basis Set: CC-PVTZ
    Blend: CC-PVTZ
    Number of shells: 16
    Number of basis functions: 44
    Number of Cartesian functions: 50
    Spherical Harmonics?: true
    Max angular momentum: 3

  ==> DFT Potential <==

   => LibXC <=

    Version 6.2.2
    S. Lehtola, C. Steigemann, M. J.T. Oliveira, and M. A.L. Marques.,  SoftwareX 7, 1–5 (2018) (10.1016/j.softx.2017.11.002)

   => Composite Functional: B3LYP <= 

    B3LYP Hyb-GGA Exchange-Correlation Functional

    P. J. Stephens, F. J. Devlin, C. F. Chabalowski, and M. J. Frisch.,  J. Phys. Chem. 98, 11623 (1994) (10.1021/j100096a001)

    Deriv               =              1
    GGA                 =           TRUE
    Meta                =          FALSE

    Exchange Hybrid     =           TRUE
    MP2 Hybrid          =          FALSE

   => Exchange Functionals <=

    0.0800   Slater exchange
    0.7200         Becke 88

   => Exact (HF) Exchange <=

    0.2000               HF 

   => Correlation Functionals <=

    0.1900   Vosko, Wilk & Nusair (VWN5_RPA)
    0.8100   Lee, Yang & Parr

   => LibXC Density Thresholds  <==

    XC_HYB_GGA_XC_B3LYP:  1.00E-15 

   => Molecular Quadrature <=

    Radial Scheme          =       TREUTLER
    Pruning Scheme         =           NONE
    Nuclear Scheme         =       TREUTLER

    Blocking Scheme        =         OCTREE
    BS radius alpha        =              1
    Pruning alpha          =              1
    Radial Points          =             75
    Spherical Points       =            302
    Total Points           =          43837
    Total Blocks           =            389
    Max Points             =            255
    Max Functions          =             44
    Weights Tolerance      =       1.00E-15

   => Loading Basis Set <=

    Name: (CC-PVTZ AUX)
    Role: JKFIT
    Keyword: DF_BASIS_SCF
    atoms 1 entry C          line   125 file /Users/joseantoniorodriguesromero/anaconda3/share/psi4/basis/cc-pvtz-jkfit.gbs 
    atoms 2 entry H          line    51 file /Users/joseantoniorodriguesromero/anaconda3/share/psi4/basis/cc-pvtz-jkfit.gbs 

   => Loading Basis Set <=

    Name: CC-PVTZ
    Role: ORBITAL
    Keyword: BASIS
    atoms 1 entry C          line   186 file /Users/joseantoniorodriguesromero/anaconda3/share/psi4/basis/cc-pvtz.gbs 
    atoms 2 entry H          line    23 file /Users/joseantoniorodriguesromero/anaconda3/share/psi4/basis/cc-pvtz.gbs 

  Reading orbitals from file /tmp/scan_HC_35.default.49113.180.npy, no projection.

  ==> Integral Setup <==

  DFHelper Memory: AOs need 0.002 GiB; user supplied 0.311 GiB. 
  Using in-core AOs.

  ==> MemDFJK: Density-Fitted J/K Matrices <==

    J tasked:                   Yes
    K tasked:                   Yes
    wK tasked:                   No
    OpenMP threads:               1
    Memory [MiB]:               318
    Algorithm:                 Core
    Schwarz Cutoff:           1E-12
    Mask sparsity (%):       0.0000
    Fitting Condition:        1E-10

   => Auxiliary Basis Set <=

  Basis Set: (CC-PVTZ AUX)
    Blend: CC-PVTZ-JKFIT
    Number of shells: 35
    Number of basis functions: 109
    Number of Cartesian functions: 131
    Spherical Harmonics?: true
    Max angular momentum: 4

  Cached 100.0% of DFT collocation blocks in 0.055 [GiB].

  Minimum eigenvalue in the overlap matrix is 6.7435297781E-03.
  Reciprocal condition number of the overlap matrix is 1.7361535410E-03.
    Using symmetric orthogonalization.

  ==> Pre-Iterations <==

  SCF Guess: Orbitals guess was supplied from a previous computation.

   -------------------------------------------------------
    Irrep   Nso     Nmo     Nalpha   Nbeta   Ndocc  Nsocc
   -------------------------------------------------------
     A1        20      20       3       3       3       0
     A2         4       4       0       0       0       0
     B1        10      10       1       0       0       1
     B2        10      10       1       0       0       1
   -------------------------------------------------------
    Total      44      44       5       3       3       2
   -------------------------------------------------------

  ==> Iterations <==

                           Total Energy        Delta E     RMS |[F,P]|

   @DF-UKS iter   0:   -38.51620463037782   -3.85162e+01   1.28073e-03 
   @DF-UKS iter   1:   -38.51924654067155   -3.04191e-03   3.41267e-04 DIIS/ADIIS
   @DF-UKS iter   2:   -38.51923784784476    8.69283e-06   3.82266e-04 DIIS/ADIIS/DAMP=1%
   @DF-UKS iter   3:   -38.51949014915203   -2.52301e-04   4.31724e-05 DIIS/DAMP=1%
   @DF-UKS iter   4:   -38.51927897745594    2.11172e-04   4.62324e-06 DIIS/DAMP=1%
   @DF-UKS iter   5:   -38.51930308025115   -2.41028e-05   8.67444e-07 DIIS/DAMP=1%
   @DF-UKS iter   6:   -38.51930041641770    2.66383e-06   2.99198e-07 DIIS/DAMP=1%
   @DF-UKS iter   7:   -38.51930064327465   -2.26857e-07   9.85667e-08 DIIS/DAMP=1%
   @DF-UKS iter   8:   -38.51930073945012   -9.61755e-08   1.64261e-08 DIIS/DAMP=1%
   @DF-UKS iter   9:   -38.51930069878483    4.06653e-08   1.80882e-09 DIIS/DAMP=1%
   @DF-UKS iter  10:   -38.51930070418293   -5.39810e-09   1.51158e-10 DIIS/DAMP=1%
  Energy and wave function converged.


  ==> Post-Iterations <==

   Electrons on quadrature grid:
      Nalpha   =    5.0000000340 ; deviation = 3.398e-08
      Nbeta    =    3.0000000469 ; deviation = 4.692e-08
      Ntotal   =    8.0000000809 ; deviation = 8.090e-08 

   @Spin Contamination Metric:   6.414561063E-03
   @S^2 Expected:                2.000000000E+00
   @S^2 Observed:                2.006414561E+00
   @S   Expected:                1.000000000E+00
   @S   Observed:                1.000000000E+00

    Orbital Energies [Eh]
    ---------------------

    Alpha Occupied:                                                       

       1A1    -9.901904     2A1    -0.281502     3A1     0.003134  
       1B1     0.078641     1B2     0.078641  

    Alpha Virtual:                                                        

       4A1     0.281892     5A1     0.532805     2B2     0.568224  
       2B1     0.568224     6A1     0.607875     7A1     0.715716  
       3B2     0.850752     3B1     0.850752     8A1     0.959683  
       1A2     0.959683     9A1     1.205427     4B1     1.266966  
       4B2     1.266966    10A1     1.513289     5B2     2.263757  
       5B1     2.263757    11A1     2.453696    12A1     2.690440  
       2A2     2.890685    13A1     2.890686     6B1     2.904423  
       6B2     2.904423     7B1     2.984356     7B2     2.984356  
      14A1     3.080979     3A2     3.246935    15A1     3.246935  
       8B1     3.375020     8B2     3.375020    16A1     3.412455  
       4A2     3.707226    17A1     3.707230     9B1     4.028565  
       9B2     4.028565    18A1     4.221203    10B2     4.567062  
      10B1     4.567062    19A1     4.691376    20A1     6.812603  

    Beta Occupied:                                                        

       1A1    -9.877865     2A1    -0.204884     3A1     0.032014  

    Beta Virtual:                                                         

       1B1     0.237323     1B2     0.237323     4A1     0.293155  
       5A1     0.544975     6A1     0.625612     2B2     0.639537  
       2B1     0.639537     7A1     0.759166     3B2     0.874428  
       3B1     0.874428     8A1     1.036150     1A2     1.036150  
       9A1     1.229139     4B1     1.291769     4B2     1.291769  
      10A1     1.525020     5B2     2.342762     5B1     2.342762  
      11A1     2.474824    12A1     2.703884     2A2     2.941947  
      13A1     2.941947     6B1     2.942193     6B2     2.942193  
       7B1     3.080387     7B2     3.080387    14A1     3.113471  
       3A2     3.366447    15A1     3.366447     8B1     3.432834  
       8B2     3.432834    16A1     3.446560     4A2     3.720426  
      17A1     3.720430     9B1     4.025980     9B2     4.025980  
      18A1     4.240987    10B2     4.583659    10B1     4.583659  
      19A1     4.695932    20A1     6.840060  

    Final Occupation by Irrep:
             A1    A2    B1    B2 
    DOCC [     3,    0,    0,    0 ]
    SOCC [     0,    0,    1,    1 ]
    NA   [     3,    0,    1,    1 ]
    NB   [     3,    0,    0,    0 ]

  @DF-UKS Final Energy:   -38.51930070418293

   => Energetics <=

    Nuclear Repulsion Energy =              2.4023371164811422
    One-Electron Energy =                 -58.3637054965775945
    Two-Electron Energy =                  22.1651438008466144
    DFT Exchange-Correlation Energy =      -4.7230761249330921
    Empirical Dispersion Energy =           0.0000000000000000
    VV10 Nonlocal Energy =                  0.0000000000000000
    Total Energy =                        -38.5193007041829318

  UHF NO Occupations:
  HONO-2 :    3 A1 1.9974164
  HONO-1 :    1 B1 1.0000000
  HONO-0 :    1 B2 1.0000000
  LUNO+0 :    4 A1 0.0025836
  LUNO+1 :    5 A1 0.0006261
  LUNO+2 :    6 A1 0.0000011
  LUNO+3 :    7 A1 0.0000000


Computation Completed


Properties will be evaluated at   0.000000,   0.000000,   0.000000 [a0]

Properties computed using the SCF density matrix


 Multipole Moments:

 ------------------------------------------------------------------------------------
     Multipole            Electronic (a.u.)      Nuclear  (a.u.)        Total (a.u.)
 ------------------------------------------------------------------------------------

 L = 1.  Multiply by 2.5417464519 to convert [e a0] to [Debye]
 Dipole X            :          0.0000000            0.0000000            0.0000000
 Dipole Y            :          0.0000000            0.0000000            0.0000000
 Dipole Z            :         -1.0544212            1.1430155            0.0885943
 Magnitude           :                                                    0.0885943

 ------------------------------------------------------------------------------------

*** tstop() called on Mac.lan at Sun Aug 10 17:36:04 2025
Module time:
	user time   =       8.78 seconds =       0.15 minutes
	system time =       2.14 seconds =       0.04 minutes
	total time  =          1 seconds =       0.02 minutes
Total time:
	user time   =       8.78 seconds =       0.15 minutes
	system time =       2.14 seconds =       0.04 minutes
	total time  =          1 seconds =       0.02 minutes

*** tstart() called on Mac.lan
*** at Sun Aug 10 17:36:04 2025

   => Libint2 <=

    Primary   basis highest AM E, G, H:  6, 6, 3
    Auxiliary basis highest AM E, G, H:  7, 7, 4
    Onebody   basis highest AM E, G, H:  -, -, -
    Solid Harmonics ordering:            Gaussian
   => Loading Basis Set <=

    Name: CC-PVTZ
    Role: ORBITAL
    Keyword: BASIS
    atoms 1 entry C          line   186 file /Users/joseantoniorodriguesromero/anaconda3/share/psi4/basis/cc-pvtz.gbs 
    atoms 2 entry H          line    23 file /Users/joseantoniorodriguesromero/anaconda3/share/psi4/basis/cc-pvtz.gbs 


         ---------------------------------------------------------
                                   SCF
               by Justin Turney, Rob Parrish, Andy Simmonett
                          and Daniel G. A. Smith
                              UKS Reference
                        1 Threads,    500 MiB Core
         ---------------------------------------------------------

  ==> Geometry <==

    Molecular point group: c2v
    Full point group: C_inf_v

    Geometry (in Angstrom), charge = -1, multiplicity = 3:

       Center              X                  Y                   Z               Mass       
    ------------   -----------------  -----------------  -----------------  -----------------
         C            0.000000000000     0.000000000000    -0.102399747652    12.000000000000
         H            0.000000000000     0.000000000000     1.219256252348     1.007825032230

  Running in c2v symmetry.

  Rotational constants: A = ************  B =     10.38001  C =     10.38001 [cm^-1]
  Rotational constants: A = ************  B = 311184.98596  C = 311184.98596 [MHz]
  Nuclear repulsion =    2.402337116481142

  Charge       = -1
  Multiplicity = 3
  Electrons    = 8
  Nalpha       = 5
  Nbeta        = 3

  ==> Algorithm <==

  SCF Algorithm Type is DF.
  DIIS enabled.
  MOM disabled.
  Fractional occupation disabled.
  Guess Type is READ.
  Energy threshold   = 1.00e-08
  Density threshold  = 1.00e-08
  Integral threshold = 1.00e-12

  ==> Primary Basis <==

  Basis Set: CC-PVTZ
    Blend: CC-PVTZ
    Number of shells: 16
    Number of basis functions: 44
    Number of Cartesian functions: 50
    Spherical Harmonics?: true
    Max angular momentum: 3

  ==> DFT Potential <==

   => LibXC <=

    Version 6.2.2
    S. Lehtola, C. Steigemann, M. J.T. Oliveira, and M. A.L. Marques.,  SoftwareX 7, 1–5 (2018) (10.1016/j.softx.2017.11.002)

   => Composite Functional: B3LYP <= 

    B3LYP Hyb-GGA Exchange-Correlation Functional

    P. J. Stephens, F. J. Devlin, C. F. Chabalowski, and M. J. Frisch.,  J. Phys. Chem. 98, 11623 (1994) (10.1021/j100096a001)

    Deriv               =              1
    GGA                 =           TRUE
    Meta                =          FALSE

    Exchange Hybrid     =           TRUE
    MP2 Hybrid          =          FALSE

   => Exchange Functionals <=

    0.0800   Slater exchange
    0.7200         Becke 88

   => Exact (HF) Exchange <=

    0.2000               HF 

   => Correlation Functionals <=

    0.1900   Vosko, Wilk & Nusair (VWN5_RPA)
    0.8100   Lee, Yang & Parr

   => LibXC Density Thresholds  <==

    XC_HYB_GGA_XC_B3LYP:  1.00E-15 

   => Molecular Quadrature <=

    Radial Scheme          =       TREUTLER
    Pruning Scheme         =           NONE
    Nuclear Scheme         =       TREUTLER

    Blocking Scheme        =         OCTREE
    BS radius alpha        =              1
    Pruning alpha          =              1
    Radial Points          =             75
    Spherical Points       =            302
    Total Points           =          43837
    Total Blocks           =            389
    Max Points             =            255
    Max Functions          =             44
    Weights Tolerance      =       1.00E-15

   => Loading Basis Set <=

    Name: (CC-PVTZ AUX)
    Role: JKFIT
    Keyword: DF_BASIS_SCF
    atoms 1 entry C          line   125 file /Users/joseantoniorodriguesromero/anaconda3/share/psi4/basis/cc-pvtz-jkfit.gbs 
    atoms 2 entry H          line    51 file /Users/joseantoniorodriguesromero/anaconda3/share/psi4/basis/cc-pvtz-jkfit.gbs 

   => Loading Basis Set <=

    Name: CC-PVTZ
    Role: ORBITAL
    Keyword: BASIS
    atoms 1 entry C          line   186 file /Users/joseantoniorodriguesromero/anaconda3/share/psi4/basis/cc-pvtz.gbs 
    atoms 2 entry H          line    23 file /Users/joseantoniorodriguesromero/anaconda3/share/psi4/basis/cc-pvtz.gbs 

  Reading orbitals from file /tmp/scan_HC_35.default.49113.180.npy, no projection.

  ==> Integral Setup <==

  DFHelper Memory: AOs need 0.002 GiB; user supplied 0.311 GiB. 
  Using in-core AOs.

  ==> MemDFJK: Density-Fitted J/K Matrices <==

    J tasked:                   Yes
    K tasked:                   Yes
    wK tasked:                   No
    OpenMP threads:               1
    Memory [MiB]:               318
    Algorithm:                 Core
    Schwarz Cutoff:           1E-12
    Mask sparsity (%):       0.0000
    Fitting Condition:        1E-10

   => Auxiliary Basis Set <=

  Basis Set: (CC-PVTZ AUX)
    Blend: CC-PVTZ-JKFIT
    Number of shells: 35
    Number of basis functions: 109
    Number of Cartesian functions: 131
    Spherical Harmonics?: true
    Max angular momentum: 4

  Cached 100.0% of DFT collocation blocks in 0.055 [GiB].

  Minimum eigenvalue in the overlap matrix is 6.7435297781E-03.
  Reciprocal condition number of the overlap matrix is 1.7361535410E-03.
    Using symmetric orthogonalization.

  ==> Pre-Iterations <==

  SCF Guess: Orbitals guess was supplied from a previous computation.

   -------------------------------------------------------
    Irrep   Nso     Nmo     Nalpha   Nbeta   Ndocc  Nsocc
   -------------------------------------------------------
     A1        20      20       3       3       3       0
     A2         4       4       0       0       0       0
     B1        10      10       1       0       0       1
     B2        10      10       1       0       0       1
   -------------------------------------------------------
    Total      44      44       5       3       3       2
   -------------------------------------------------------

  ==> Iterations <==

                           Total Energy        Delta E     RMS |[F,P]|

   @DF-UKS iter   0:   -38.51930070444764   -3.85193e+01   2.99285e-11 
   @DF-UKS iter   1:   -38.51930070444764    0.00000e+00   2.04347e-11 DIIS
  Energy and wave function converged.


  ==> Post-Iterations <==

   Electrons on quadrature grid:
      Nalpha   =    5.0000000340 ; deviation = 3.398e-08
      Nbeta    =    3.0000000469 ; deviation = 4.692e-08
      Ntotal   =    8.0000000809 ; deviation = 8.090e-08 

   @Spin Contamination Metric:   6.414561181E-03
   @S^2 Expected:                2.000000000E+00
   @S^2 Observed:                2.006414561E+00
   @S   Expected:                1.000000000E+00
   @S   Observed:                1.000000000E+00

    Orbital Energies [Eh]
    ---------------------

    Alpha Occupied:                                                       

       1A1    -9.901904     2A1    -0.281502     3A1     0.003134  
       1B1     0.078641     1B2     0.078641  

    Alpha Virtual:                                                        

       4A1     0.281892     5A1     0.532805     2B2     0.568224  
       2B1     0.568224     6A1     0.607875     7A1     0.715716  
       3B2     0.850752     3B1     0.850752     8A1     0.959683  
       1A2     0.959683     9A1     1.205427     4B1     1.266966  
       4B2     1.266966    10A1     1.513289     5B2     2.263757  
       5B1     2.263757    11A1     2.453696    12A1     2.690440  
       2A2     2.890685    13A1     2.890686     6B1     2.904423  
       6B2     2.904423     7B1     2.984356     7B2     2.984356  
      14A1     3.080979     3A2     3.246935    15A1     3.246935  
       8B1     3.375020     8B2     3.375020    16A1     3.412455  
       4A2     3.707226    17A1     3.707230     9B1     4.028565  
       9B2     4.028565    18A1     4.221203    10B2     4.567062  
      10B1     4.567062    19A1     4.691376    20A1     6.812603  

    Beta Occupied:                                                        

       1A1    -9.877865     2A1    -0.204884     3A1     0.032014  

    Beta Virtual:                                                         

       1B1     0.237323     1B2     0.237323     4A1     0.293155  
       5A1     0.544975     6A1     0.625612     2B2     0.639537  
       2B1     0.639537     7A1     0.759166     3B2     0.874428  
       3B1     0.874428     8A1     1.036150     1A2     1.036150  
       9A1     1.229139     4B1     1.291769     4B2     1.291769  
      10A1     1.525020     5B2     2.342762     5B1     2.342762  
      11A1     2.474824    12A1     2.703884     2A2     2.941947  
      13A1     2.941947     6B1     2.942193     6B2     2.942193  
       7B1     3.080387     7B2     3.080387    14A1     3.113471  
       3A2     3.366447    15A1     3.366447     8B1     3.432834  
       8B2     3.432834    16A1     3.446560     4A2     3.720426  
      17A1     3.720430     9B1     4.025980     9B2     4.025980  
      18A1     4.240987    10B2     4.583659    10B1     4.583659  
      19A1     4.695932    20A1     6.840060  

    Final Occupation by Irrep:
             A1    A2    B1    B2 
    DOCC [     3,    0,    0,    0 ]
    SOCC [     0,    0,    1,    1 ]
    NA   [     3,    0,    1,    1 ]
    NB   [     3,    0,    0,    0 ]

  @DF-UKS Final Energy:   -38.51930070444764

   => Energetics <=

    Nuclear Repulsion Energy =              2.4023371164811422
    One-Electron Energy =                 -58.3637054910471065
    Two-Electron Energy =                  22.1651437946341225
    DFT Exchange-Correlation Energy =      -4.7230761245158073
    Empirical Dispersion Energy =           0.0000000000000000
    VV10 Nonlocal Energy =                  0.0000000000000000
    Total Energy =                        -38.5193007044476516

  UHF NO Occupations:
  HONO-2 :    3 A1 1.9974164
  HONO-1 :    1 B1 1.0000000
  HONO-0 :    1 B2 1.0000000
  LUNO+0 :    4 A1 0.0025836
  LUNO+1 :    5 A1 0.0006261
  LUNO+2 :    6 A1 0.0000011
  LUNO+3 :    7 A1 0.0000000


Computation Completed


Properties will be evaluated at   0.000000,   0.000000,   0.000000 [a0]

Properties computed using the B3LYP density matrix


 Multipole Moments:

 ------------------------------------------------------------------------------------
     Multipole            Electronic (a.u.)      Nuclear  (a.u.)        Total (a.u.)
 ------------------------------------------------------------------------------------

 L = 1.  Multiply by 2.5417464519 to convert [e a0] to [Debye]
 Dipole X            :          0.0000000            0.0000000            0.0000000
 Dipole Y            :          0.0000000            0.0000000            0.0000000
 Dipole Z            :         -1.0544212            1.1430155            0.0885943
 Magnitude           :                                                    0.0885943

 L = 2.  Multiply by 1.3450342976 to convert [e a0^2] to [Debye ang]
 Quadrupole XX       :         -8.1245327            0.0000000           -8.1245327
 Quadrupole XY       :          0.0000000            0.0000000            0.0000000
 Quadrupole XZ       :          0.0000000            0.0000000            0.0000000
 Quadrupole YY       :         -8.1245327            0.0000000           -8.1245327
 Quadrupole YZ       :          0.0000000            0.0000000            0.0000000
 Quadrupole ZZ       :        -14.8298391            5.5333652           -9.2964740
 Traceless XX        :          2.2351021           -1.8444551            0.3906471
 Traceless YY        :          2.2351021           -1.8444551            0.3906471
 Traceless ZZ        :         -4.4702043            3.6889101           -0.7812942

 ------------------------------------------------------------------------------------
  ==> Computing MBIS Charges <==

  Electron Count from Grid (Expected Number):  8.00000 ( 8.00000)
  Difference:  0.00000

  MBIS Charges: (a.u.)
   Center  Symbol  Z      Pop.       Charge
      1       C    6    6.874020   -0.874020
      2       H    1    1.125980   -0.125980

  MBIS Dipoles: [e a0]
   Center  Symbol  Z        X           Y           Z
      1       C    6   -0.000000   -0.000000    0.223059
      2       H    1    0.000000    0.000000   -0.013329

  MBIS Quadrupoles: [e a0^2]
   Center  Symbol  Z      XX        XY        XZ        YY        YZ        ZZ
      1       C    6   -7.0398    0.0000    0.0000   -7.0398    0.0000   -7.2801
      2       H    1   -1.0847    0.0000   -0.0000   -1.0847    0.0000   -1.1671

  MBIS Octupoles: [e a0^3]
   Center  Symbol  Z      XXX       XXY       XXZ       XYY       XYZ       XZZ       YYY       YYZ       YZZ       ZZZ
      1       C    6    0.0000   -0.0000    0.2196   -0.0000   -0.0000   -0.0000   -0.0000    0.2196   -0.0000   -0.6673
      2       H    1   -0.0000    0.0000   -0.0985   -0.0000   -0.0000   -0.0000   -0.0000   -0.0985   -0.0000   -0.2318

  MBIS Radial Moments:
   Center  Symbol  Z      [a0^2]      [a0^3]      [a0^4]      
      1       C    6   21.359723   60.587658   202.954195
      2       H    1    3.336550    8.355499   24.866282

  MBIS Valence Widths: [a0]
   Center  Symbol  Z     Width
      1       C    6    0.592206
      2       H    1    0.493954

*** tstop() called on Mac.lan at Sun Aug 10 17:36:04 2025
Module time:
	user time   =       2.44 seconds =       0.04 minutes
	system time =       2.03 seconds =       0.03 minutes
	total time  =          0 seconds =       0.00 minutes
Total time:
	user time   =      11.25 seconds =       0.19 minutes
	system time =       4.34 seconds =       0.07 minutes
	total time  =          1 seconds =       0.02 minutes

    Psi4 stopped on: Sunday, 10 August 2025 05:36PM
    Psi4 wall time for execution: 0:00:01.51

*** Psi4 exiting successfully. Buy a developer a beer!
