
    -----------------------------------------------------------------------
          Psi4: An Open-Source Ab Initio Electronic Structure Package
                               Psi4 1.9.1 release

                         Git: Rev {} zzzzzzz 


    D. G. A. Smith, L. A. Burns, A. C. Simmonett, R. M. Parrish,
    M. C. Schieber, R. Galvelis, P. Kraus, H. Kruse, R. Di Remigio,
    A. Alenaizan, A. M. James, S. Lehtola, J. P. Misiewicz, M. Scheurer,
    R. A. Shaw, J. B. Schriber, Y. Xie, Z. L. Glick, D. A. Sirianni,
    J. S. O'Brien, J. M. Waldrop, A. Kumar, E. G. Hohenstein,
    B. P. Pritchard, B. R. Brooks, H. F. Schaefer III, A. Yu. Sokolov,
    K. Patkowski, A. E. DePrince III, U. Bozkaya, R. A. King,
    F. A. Evangelista, J. M. Turney, T. D. Crawford, C. D. Sherrill,
    J. Chem. Phys. 152(18) 184108 (2020). https://doi.org/10.1063/5.0006002

                            Additional Code Authors
    E. T. Seidl, C. L. Janssen, E. F. Valeev, M. L. Leininger,
    J. F. Gonthier, R. M. Richard, H. R. McAlexander, M. Saitow, X. Wang,
    P. Verma, M. H. Lechner, A. Jiang, S. Behnle, A. G. Heide,
    M. F. Herbst, and D. L. Poole

             Previous Authors, Complete List of Code Contributors,
                       and Citations for Specific Modules
    https://github.com/psi4/psi4/blob/master/codemeta.json
    https://github.com/psi4/psi4/graphs/contributors
    http://psicode.org/psi4manual/master/introduction.html#citing-psifour

    -----------------------------------------------------------------------


    Psi4 started on: Sunday, 10 August 2025 05:35PM

    Process ID: 49105
    Host:       Mac.lan
    PSIDATADIR: /Users/joseantoniorodriguesromero/anaconda3/share/psi4
    Memory:     500.0 MiB
    Threads:    1
    
  ==> Input File <==

--------------------------------------------------------------------------
molecule { 
-1 3
C           0.000000           0.000000           0.000000
H           0.000000           0.000000           1.105491
}

set { 
basis              cc-pvtz
reference          uks
maxiter            500
DAMPING_PERCENTAGE 1
E_CONVERGENCE      1.0E-8
D_CONVERGENCE      1.0E-8
DIIS_MAX_VECS      400
MBIS_MAXITER       8000
guess              read
}

E, wfn = energy('b3lyp', restart_file='last_wfn', return_wfn=True)
properties('b3lyp','MBIS_CHARGES', wfn=wfn)
wfn.to_file('last_wfn')
--------------------------------------------------------------------------

Scratch directory: /tmp/
 Found user provided orbital data. Setting orbital guess to READ 
 Copying restart file <last_wfn.npy> to </tmp/scan_HC_27.default.49105.180.npy> for internal processing
   => Libint2 <=

    Primary   basis highest AM E, G, H:  6, 6, 3
    Auxiliary basis highest AM E, G, H:  7, 7, 4
    Onebody   basis highest AM E, G, H:  -, -, -
    Solid Harmonics ordering:            Gaussian

*** tstart() called on Mac.lan
*** at Sun Aug 10 17:35:46 2025

   => Loading Basis Set <=

    Name: CC-PVTZ
    Role: ORBITAL
    Keyword: BASIS
    atoms 1 entry C          line   186 file /Users/joseantoniorodriguesromero/anaconda3/share/psi4/basis/cc-pvtz.gbs 
    atoms 2 entry H          line    23 file /Users/joseantoniorodriguesromero/anaconda3/share/psi4/basis/cc-pvtz.gbs 


         ---------------------------------------------------------
                                   SCF
               by Justin Turney, Rob Parrish, Andy Simmonett
                          and Daniel G. A. Smith
                              UKS Reference
                        1 Threads,    500 MiB Core
         ---------------------------------------------------------

  ==> Geometry <==

    Molecular point group: c2v
    Full point group: C_inf_v

    Geometry (in Angstrom), charge = -1, multiplicity = 3:

       Center              X                  Y                   Z               Mass       
    ------------   -----------------  -----------------  -----------------  -----------------
         C            0.000000000000     0.000000000000    -0.085651636607    12.000000000000
         H            0.000000000000     0.000000000000     1.019839363393     1.007825032230

  Running in c2v symmetry.

  Rotational constants: A = ************  B =     14.83626  C =     14.83626 [cm^-1]
  Rotational constants: A = ************  B = 444779.82156  C = 444779.82156 [MHz]
  Nuclear repulsion =    2.872084226845809

  Charge       = -1
  Multiplicity = 3
  Electrons    = 8
  Nalpha       = 5
  Nbeta        = 3

  ==> Algorithm <==

  SCF Algorithm Type is DF.
  DIIS enabled.
  MOM disabled.
  Fractional occupation disabled.
  Guess Type is READ.
  Energy threshold   = 1.00e-08
  Density threshold  = 1.00e-08
  Integral threshold = 1.00e-12

  ==> Primary Basis <==

  Basis Set: CC-PVTZ
    Blend: CC-PVTZ
    Number of shells: 16
    Number of basis functions: 44
    Number of Cartesian functions: 50
    Spherical Harmonics?: true
    Max angular momentum: 3

  ==> DFT Potential <==

   => LibXC <=

    Version 6.2.2
    S. Lehtola, C. Steigemann, M. J.T. Oliveira, and M. A.L. Marques.,  SoftwareX 7, 1–5 (2018) (10.1016/j.softx.2017.11.002)

   => Composite Functional: B3LYP <= 

    B3LYP Hyb-GGA Exchange-Correlation Functional

    P. J. Stephens, F. J. Devlin, C. F. Chabalowski, and M. J. Frisch.,  J. Phys. Chem. 98, 11623 (1994) (10.1021/j100096a001)

    Deriv               =              1
    GGA                 =           TRUE
    Meta                =          FALSE

    Exchange Hybrid     =           TRUE
    MP2 Hybrid          =          FALSE

   => Exchange Functionals <=

    0.0800   Slater exchange
    0.7200         Becke 88

   => Exact (HF) Exchange <=

    0.2000               HF 

   => Correlation Functionals <=

    0.1900   Vosko, Wilk & Nusair (VWN5_RPA)
    0.8100   Lee, Yang & Parr

   => LibXC Density Thresholds  <==

    XC_HYB_GGA_XC_B3LYP:  1.00E-15 

   => Molecular Quadrature <=

    Radial Scheme          =       TREUTLER
    Pruning Scheme         =           NONE
    Nuclear Scheme         =       TREUTLER

    Blocking Scheme        =         OCTREE
    BS radius alpha        =              1
    Pruning alpha          =              1
    Radial Points          =             75
    Spherical Points       =            302
    Total Points           =          43811
    Total Blocks           =            390
    Max Points             =            255
    Max Functions          =             44
    Weights Tolerance      =       1.00E-15

   => Loading Basis Set <=

    Name: (CC-PVTZ AUX)
    Role: JKFIT
    Keyword: DF_BASIS_SCF
    atoms 1 entry C          line   125 file /Users/joseantoniorodriguesromero/anaconda3/share/psi4/basis/cc-pvtz-jkfit.gbs 
    atoms 2 entry H          line    51 file /Users/joseantoniorodriguesromero/anaconda3/share/psi4/basis/cc-pvtz-jkfit.gbs 

   => Loading Basis Set <=

    Name: CC-PVTZ
    Role: ORBITAL
    Keyword: BASIS
    atoms 1 entry C          line   186 file /Users/joseantoniorodriguesromero/anaconda3/share/psi4/basis/cc-pvtz.gbs 
    atoms 2 entry H          line    23 file /Users/joseantoniorodriguesromero/anaconda3/share/psi4/basis/cc-pvtz.gbs 

  Reading orbitals from file /tmp/scan_HC_27.default.49105.180.npy, no projection.

  ==> Integral Setup <==

  DFHelper Memory: AOs need 0.002 GiB; user supplied 0.311 GiB. 
  Using in-core AOs.

  ==> MemDFJK: Density-Fitted J/K Matrices <==

    J tasked:                   Yes
    K tasked:                   Yes
    wK tasked:                   No
    OpenMP threads:               1
    Memory [MiB]:               318
    Algorithm:                 Core
    Schwarz Cutoff:           1E-12
    Mask sparsity (%):       0.0000
    Fitting Condition:        1E-10

   => Auxiliary Basis Set <=

  Basis Set: (CC-PVTZ AUX)
    Blend: CC-PVTZ-JKFIT
    Number of shells: 35
    Number of basis functions: 109
    Number of Cartesian functions: 131
    Spherical Harmonics?: true
    Max angular momentum: 4

  Cached 100.0% of DFT collocation blocks in 0.055 [GiB].

  Minimum eigenvalue in the overlap matrix is 2.5448803885E-03.
  Reciprocal condition number of the overlap matrix is 6.2173018051E-04.
    Using symmetric orthogonalization.

  ==> Pre-Iterations <==

  SCF Guess: Orbitals guess was supplied from a previous computation.

   -------------------------------------------------------
    Irrep   Nso     Nmo     Nalpha   Nbeta   Ndocc  Nsocc
   -------------------------------------------------------
     A1        20      20       3       3       3       0
     A2         4       4       0       0       0       0
     B1        10      10       1       0       0       1
     B2        10      10       1       0       0       1
   -------------------------------------------------------
    Total      44      44       5       3       3       2
   -------------------------------------------------------

  ==> Iterations <==

                           Total Energy        Delta E     RMS |[F,P]|

   @DF-UKS iter   0:   -38.52761341323687   -3.85276e+01   2.02440e-03 
   @DF-UKS iter   1:   -38.52623330349458    1.38011e-03   4.41361e-04 DIIS/ADIIS
   @DF-UKS iter   2:   -38.52622467928018    8.62421e-06   4.86543e-04 DIIS/ADIIS/DAMP=1%
   @DF-UKS iter   3:   -38.52656364249018   -3.38963e-04   3.08904e-05 DIIS/DAMP=1%
   @DF-UKS iter   4:   -38.52630206716017    2.61575e-04   6.05926e-06 DIIS/DAMP=1%
   @DF-UKS iter   5:   -38.52631690807617   -1.48409e-05   6.19076e-07 DIIS/DAMP=1%
   @DF-UKS iter   6:   -38.52631352338867    3.38469e-06   1.25053e-07 DIIS/DAMP=1%
   @DF-UKS iter   7:   -38.52631368532972   -1.61941e-07   2.83518e-08 DIIS/DAMP=1%
   @DF-UKS iter   8:   -38.52631372471775   -3.93880e-08   5.12385e-09 DIIS/DAMP=1%
   @DF-UKS iter   9:   -38.52631371516759    9.55016e-09   9.94491e-10 DIIS/DAMP=1%
  Energy and wave function converged.


  ==> Post-Iterations <==

   Electrons on quadrature grid:
      Nalpha   =    4.9999999876 ; deviation = -1.244e-08
      Nbeta    =    2.9999999860 ; deviation = -1.401e-08
      Ntotal   =    7.9999999735 ; deviation = -2.646e-08 

   @Spin Contamination Metric:   5.413988207E-03
   @S^2 Expected:                2.000000000E+00
   @S^2 Observed:                2.005413988E+00
   @S   Expected:                1.000000000E+00
   @S   Observed:                1.000000000E+00

    Orbital Energies [Eh]
    ---------------------

    Alpha Occupied:                                                       

       1A1    -9.871420     2A1    -0.310084     3A1     0.011634  
       1B2     0.088109     1B1     0.088109  

    Alpha Virtual:                                                        

       4A1     0.295177     5A1     0.541917     2B2     0.575459  
       2B1     0.575459     6A1     0.645813     7A1     0.722573  
       3B1     0.881458     3B2     0.881458     8A1     0.966265  
       1A2     0.966265     9A1     1.252837     4B1     1.325004  
       4B2     1.325004    10A1     1.707319     5B2     2.295138  
       5B1     2.295138    11A1     2.369299    12A1     2.531552  
      13A1     2.870822     2A2     2.870822     6B2     2.973414  
       6B1     2.973414     7B1     2.995430     7B2     2.995430  
      14A1     3.258184     3A2     3.266571    15A1     3.266571  
       8B1     3.405933     8B2     3.405933    16A1     3.590946  
      17A1     3.900017     4A2     3.900018     9B1     4.125490  
       9B2     4.125490    18A1     4.850437    10B2     5.048908  
      10B1     5.048908    19A1     5.103442    20A1     8.537237  

    Beta Occupied:                                                        

       1A1    -9.848262     2A1    -0.240689     3A1     0.047526  

    Beta Virtual:                                                         

       1B1     0.244151     1B2     0.244151     4A1     0.301947  
       5A1     0.558797     2B2     0.646249     2B1     0.646249  
       6A1     0.676235     7A1     0.749539     3B2     0.911047  
       3B1     0.911047     1A2     1.042764     8A1     1.042764  
       9A1     1.276151     4B1     1.348807     4B2     1.348807  
      10A1     1.729996     5B2     2.374724     5B1     2.374724  
      11A1     2.386203    12A1     2.563697    13A1     2.919891  
       2A2     2.919891     6B1     3.013735     6B2     3.013735  
       7B1     3.090956     7B2     3.090956    14A1     3.292664  
      15A1     3.383796     3A2     3.383797     8B1     3.452905  
       8B2     3.452905    16A1     3.615578    17A1     3.921454  
       4A2     3.921455     9B1     4.127715     9B2     4.127715  
      18A1     4.864014    10B2     5.073634    10B1     5.073634  
      19A1     5.114501    20A1     8.565767  

    Final Occupation by Irrep:
             A1    A2    B1    B2 
    DOCC [     3,    0,    0,    0 ]
    SOCC [     0,    0,    1,    1 ]
    NA   [     3,    0,    1,    1 ]
    NB   [     3,    0,    0,    0 ]

  @DF-UKS Final Energy:   -38.52631371516759

   => Energetics <=

    Nuclear Repulsion Energy =              2.8720842268458089
    One-Electron Energy =                 -59.3212131320595830
    Two-Electron Energy =                  22.6956317864687662
    DFT Exchange-Correlation Energy =      -4.7728165964225786
    Empirical Dispersion Energy =           0.0000000000000000
    VV10 Nonlocal Energy =                  0.0000000000000000
    Total Energy =                        -38.5263137151675892

  UHF NO Occupations:
  HONO-2 :    3 A1 1.9976616
  HONO-1 :    1 B2 1.0000000
  HONO-0 :    1 B1 1.0000000
  LUNO+0 :    4 A1 0.0023384
  LUNO+1 :    5 A1 0.0003703
  LUNO+2 :    6 A1 0.0000011
  LUNO+3 :    7 A1 0.0000000


Computation Completed


Properties will be evaluated at   0.000000,   0.000000,   0.000000 [a0]

Properties computed using the SCF density matrix


 Multipole Moments:

 ------------------------------------------------------------------------------------
     Multipole            Electronic (a.u.)      Nuclear  (a.u.)        Total (a.u.)
 ------------------------------------------------------------------------------------

 L = 1.  Multiply by 2.5417464519 to convert [e a0] to [Debye]
 Dipole X            :          0.0000000            0.0000000            0.0000000
 Dipole Y            :          0.0000000            0.0000000            0.0000000
 Dipole Z            :         -0.4881072            0.9560683            0.4679611
 Magnitude           :                                                    0.4679611

 ------------------------------------------------------------------------------------

*** tstop() called on Mac.lan at Sun Aug 10 17:35:47 2025
Module time:
	user time   =       8.81 seconds =       0.15 minutes
	system time =       2.29 seconds =       0.04 minutes
	total time  =          1 seconds =       0.02 minutes
Total time:
	user time   =       8.81 seconds =       0.15 minutes
	system time =       2.29 seconds =       0.04 minutes
	total time  =          1 seconds =       0.02 minutes

*** tstart() called on Mac.lan
*** at Sun Aug 10 17:35:47 2025

   => Libint2 <=

    Primary   basis highest AM E, G, H:  6, 6, 3
    Auxiliary basis highest AM E, G, H:  7, 7, 4
    Onebody   basis highest AM E, G, H:  -, -, -
    Solid Harmonics ordering:            Gaussian
   => Loading Basis Set <=

    Name: CC-PVTZ
    Role: ORBITAL
    Keyword: BASIS
    atoms 1 entry C          line   186 file /Users/joseantoniorodriguesromero/anaconda3/share/psi4/basis/cc-pvtz.gbs 
    atoms 2 entry H          line    23 file /Users/joseantoniorodriguesromero/anaconda3/share/psi4/basis/cc-pvtz.gbs 


         ---------------------------------------------------------
                                   SCF
               by Justin Turney, Rob Parrish, Andy Simmonett
                          and Daniel G. A. Smith
                              UKS Reference
                        1 Threads,    500 MiB Core
         ---------------------------------------------------------

  ==> Geometry <==

    Molecular point group: c2v
    Full point group: C_inf_v

    Geometry (in Angstrom), charge = -1, multiplicity = 3:

       Center              X                  Y                   Z               Mass       
    ------------   -----------------  -----------------  -----------------  -----------------
         C            0.000000000000     0.000000000000    -0.085651636607    12.000000000000
         H            0.000000000000     0.000000000000     1.019839363393     1.007825032230

  Running in c2v symmetry.

  Rotational constants: A = ************  B =     14.83626  C =     14.83626 [cm^-1]
  Rotational constants: A = ************  B = 444779.82156  C = 444779.82156 [MHz]
  Nuclear repulsion =    2.872084226845809

  Charge       = -1
  Multiplicity = 3
  Electrons    = 8
  Nalpha       = 5
  Nbeta        = 3

  ==> Algorithm <==

  SCF Algorithm Type is DF.
  DIIS enabled.
  MOM disabled.
  Fractional occupation disabled.
  Guess Type is READ.
  Energy threshold   = 1.00e-08
  Density threshold  = 1.00e-08
  Integral threshold = 1.00e-12

  ==> Primary Basis <==

  Basis Set: CC-PVTZ
    Blend: CC-PVTZ
    Number of shells: 16
    Number of basis functions: 44
    Number of Cartesian functions: 50
    Spherical Harmonics?: true
    Max angular momentum: 3

  ==> DFT Potential <==

   => LibXC <=

    Version 6.2.2
    S. Lehtola, C. Steigemann, M. J.T. Oliveira, and M. A.L. Marques.,  SoftwareX 7, 1–5 (2018) (10.1016/j.softx.2017.11.002)

   => Composite Functional: B3LYP <= 

    B3LYP Hyb-GGA Exchange-Correlation Functional

    P. J. Stephens, F. J. Devlin, C. F. Chabalowski, and M. J. Frisch.,  J. Phys. Chem. 98, 11623 (1994) (10.1021/j100096a001)

    Deriv               =              1
    GGA                 =           TRUE
    Meta                =          FALSE

    Exchange Hybrid     =           TRUE
    MP2 Hybrid          =          FALSE

   => Exchange Functionals <=

    0.0800   Slater exchange
    0.7200         Becke 88

   => Exact (HF) Exchange <=

    0.2000               HF 

   => Correlation Functionals <=

    0.1900   Vosko, Wilk & Nusair (VWN5_RPA)
    0.8100   Lee, Yang & Parr

   => LibXC Density Thresholds  <==

    XC_HYB_GGA_XC_B3LYP:  1.00E-15 

   => Molecular Quadrature <=

    Radial Scheme          =       TREUTLER
    Pruning Scheme         =           NONE
    Nuclear Scheme         =       TREUTLER

    Blocking Scheme        =         OCTREE
    BS radius alpha        =              1
    Pruning alpha          =              1
    Radial Points          =             75
    Spherical Points       =            302
    Total Points           =          43811
    Total Blocks           =            390
    Max Points             =            255
    Max Functions          =             44
    Weights Tolerance      =       1.00E-15

   => Loading Basis Set <=

    Name: (CC-PVTZ AUX)
    Role: JKFIT
    Keyword: DF_BASIS_SCF
    atoms 1 entry C          line   125 file /Users/joseantoniorodriguesromero/anaconda3/share/psi4/basis/cc-pvtz-jkfit.gbs 
    atoms 2 entry H          line    51 file /Users/joseantoniorodriguesromero/anaconda3/share/psi4/basis/cc-pvtz-jkfit.gbs 

   => Loading Basis Set <=

    Name: CC-PVTZ
    Role: ORBITAL
    Keyword: BASIS
    atoms 1 entry C          line   186 file /Users/joseantoniorodriguesromero/anaconda3/share/psi4/basis/cc-pvtz.gbs 
    atoms 2 entry H          line    23 file /Users/joseantoniorodriguesromero/anaconda3/share/psi4/basis/cc-pvtz.gbs 

  Reading orbitals from file /tmp/scan_HC_27.default.49105.180.npy, no projection.

  ==> Integral Setup <==

  DFHelper Memory: AOs need 0.002 GiB; user supplied 0.311 GiB. 
  Using in-core AOs.

  ==> MemDFJK: Density-Fitted J/K Matrices <==

    J tasked:                   Yes
    K tasked:                   Yes
    wK tasked:                   No
    OpenMP threads:               1
    Memory [MiB]:               318
    Algorithm:                 Core
    Schwarz Cutoff:           1E-12
    Mask sparsity (%):       0.0000
    Fitting Condition:        1E-10

   => Auxiliary Basis Set <=

  Basis Set: (CC-PVTZ AUX)
    Blend: CC-PVTZ-JKFIT
    Number of shells: 35
    Number of basis functions: 109
    Number of Cartesian functions: 131
    Spherical Harmonics?: true
    Max angular momentum: 4

  Cached 100.0% of DFT collocation blocks in 0.055 [GiB].

  Minimum eigenvalue in the overlap matrix is 2.5448803885E-03.
  Reciprocal condition number of the overlap matrix is 6.2173018051E-04.
    Using symmetric orthogonalization.

  ==> Pre-Iterations <==

  SCF Guess: Orbitals guess was supplied from a previous computation.

   -------------------------------------------------------
    Irrep   Nso     Nmo     Nalpha   Nbeta   Ndocc  Nsocc
   -------------------------------------------------------
     A1        20      20       3       3       3       0
     A2         4       4       0       0       0       0
     B1        10      10       1       0       0       1
     B2        10      10       1       0       0       1
   -------------------------------------------------------
    Total      44      44       5       3       3       2
   -------------------------------------------------------

  ==> Iterations <==

                           Total Energy        Delta E     RMS |[F,P]|

   @DF-UKS iter   0:   -38.52631371625479   -3.85263e+01   8.63606e-11 
   @DF-UKS iter   1:   -38.52631371625476    2.84217e-14   3.48093e-11 DIIS
  Energy and wave function converged.


  ==> Post-Iterations <==

   Electrons on quadrature grid:
      Nalpha   =    4.9999999876 ; deviation = -1.244e-08
      Nbeta    =    2.9999999860 ; deviation = -1.401e-08
      Ntotal   =    7.9999999735 ; deviation = -2.646e-08 

   @Spin Contamination Metric:   5.413988187E-03
   @S^2 Expected:                2.000000000E+00
   @S^2 Observed:                2.005413988E+00
   @S   Expected:                1.000000000E+00
   @S   Observed:                1.000000000E+00

    Orbital Energies [Eh]
    ---------------------

    Alpha Occupied:                                                       

       1A1    -9.871420     2A1    -0.310084     3A1     0.011634  
       1B2     0.088109     1B1     0.088109  

    Alpha Virtual:                                                        

       4A1     0.295177     5A1     0.541917     2B2     0.575459  
       2B1     0.575459     6A1     0.645813     7A1     0.722573  
       3B1     0.881458     3B2     0.881458     8A1     0.966265  
       1A2     0.966265     9A1     1.252837     4B1     1.325004  
       4B2     1.325004    10A1     1.707319     5B2     2.295138  
       5B1     2.295138    11A1     2.369299    12A1     2.531552  
      13A1     2.870822     2A2     2.870822     6B2     2.973414  
       6B1     2.973414     7B1     2.995430     7B2     2.995430  
      14A1     3.258184     3A2     3.266571    15A1     3.266571  
       8B1     3.405933     8B2     3.405933    16A1     3.590946  
      17A1     3.900017     4A2     3.900018     9B1     4.125490  
       9B2     4.125490    18A1     4.850437    10B2     5.048908  
      10B1     5.048908    19A1     5.103442    20A1     8.537237  

    Beta Occupied:                                                        

       1A1    -9.848262     2A1    -0.240689     3A1     0.047526  

    Beta Virtual:                                                         

       1B1     0.244151     1B2     0.244151     4A1     0.301947  
       5A1     0.558797     2B2     0.646249     2B1     0.646249  
       6A1     0.676235     7A1     0.749539     3B1     0.911047  
       3B2     0.911047     1A2     1.042764     8A1     1.042764  
       9A1     1.276151     4B1     1.348807     4B2     1.348807  
      10A1     1.729996     5B2     2.374724     5B1     2.374724  
      11A1     2.386203    12A1     2.563697    13A1     2.919891  
       2A2     2.919891     6B1     3.013735     6B2     3.013735  
       7B1     3.090956     7B2     3.090956    14A1     3.292664  
      15A1     3.383796     3A2     3.383797     8B1     3.452905  
       8B2     3.452905    16A1     3.615578    17A1     3.921454  
       4A2     3.921455     9B1     4.127715     9B2     4.127715  
      18A1     4.864014    10B2     5.073634    10B1     5.073634  
      19A1     5.114501    20A1     8.565767  

    Final Occupation by Irrep:
             A1    A2    B1    B2 
    DOCC [     3,    0,    0,    0 ]
    SOCC [     0,    0,    1,    1 ]
    NA   [     3,    0,    1,    1 ]
    NB   [     3,    0,    0,    0 ]

  @DF-UKS Final Energy:   -38.52631371625476

   => Energetics <=

    Nuclear Repulsion Energy =              2.8720842268458089
    One-Electron Energy =                 -59.3212131541662515
    Two-Electron Energy =                  22.6956318103275976
    DFT Exchange-Correlation Energy =      -4.7728165992619127
    Empirical Dispersion Energy =           0.0000000000000000
    VV10 Nonlocal Energy =                  0.0000000000000000
    Total Energy =                        -38.5263137162547622

  UHF NO Occupations:
  HONO-2 :    3 A1 1.9976616
  HONO-1 :    1 B2 1.0000000
  HONO-0 :    1 B1 1.0000000
  LUNO+0 :    4 A1 0.0023384
  LUNO+1 :    5 A1 0.0003703
  LUNO+2 :    6 A1 0.0000011
  LUNO+3 :    7 A1 0.0000000


Computation Completed


Properties will be evaluated at   0.000000,   0.000000,   0.000000 [a0]

Properties computed using the B3LYP density matrix


 Multipole Moments:

 ------------------------------------------------------------------------------------
     Multipole            Electronic (a.u.)      Nuclear  (a.u.)        Total (a.u.)
 ------------------------------------------------------------------------------------

 L = 1.  Multiply by 2.5417464519 to convert [e a0] to [Debye]
 Dipole X            :          0.0000000            0.0000000            0.0000000
 Dipole Y            :          0.0000000            0.0000000            0.0000000
 Dipole Z            :         -0.4881072            0.9560683            0.4679611
 Magnitude           :                                                    0.4679611

 L = 2.  Multiply by 1.3450342976 to convert [e a0^2] to [Debye ang]
 Quadrupole XX       :         -7.9854246            0.0000000           -7.9854246
 Quadrupole XY       :          0.0000000            0.0000000            0.0000000
 Quadrupole XZ       :          0.0000000            0.0000000            0.0000000
 Quadrupole YY       :         -7.9854246            0.0000000           -7.9854246
 Quadrupole YZ       :          0.0000000            0.0000000            0.0000000
 Quadrupole ZZ       :        -12.4122557            3.8713540           -8.5409017
 Traceless XX        :          1.4756104           -1.2904513            0.1851590
 Traceless YY        :          1.4756104           -1.2904513            0.1851590
 Traceless ZZ        :         -2.9512208            2.5809027           -0.3703181

 ------------------------------------------------------------------------------------
  ==> Computing MBIS Charges <==

  Electron Count from Grid (Expected Number):  8.00000 ( 8.00000)
  Difference: -0.00000

  MBIS Charges: (a.u.)
   Center  Symbol  Z      Pop.       Charge
      1       C    6    7.031518   -1.031518
      2       H    1    0.968482    0.031518

  MBIS Dipoles: [e a0]
   Center  Symbol  Z        X           Y           Z
      1       C    6    0.000000    0.000000    0.235360
      2       H    1    0.000000   -0.000000    0.004899

  MBIS Quadrupoles: [e a0^2]
   Center  Symbol  Z      XX        XY        XZ        YY        YZ        ZZ
      1       C    6   -7.3125   -0.0000   -0.0000   -7.3125    0.0000   -7.8399
      2       H    1   -0.6730    0.0000   -0.0000   -0.6730   -0.0000   -0.7337

  MBIS Octupoles: [e a0^3]
   Center  Symbol  Z      XXX       XXY       XXZ       XYY       XYZ       XZZ       YYY       YYZ       YZZ       ZZZ
      1       C    6   -0.0000   -0.0000    0.3310   -0.0000   -0.0000   -0.0000   -0.0000    0.3310   -0.0000   -0.6292
      2       H    1   -0.0000    0.0000   -0.0392   -0.0000   -0.0000   -0.0000    0.0000   -0.0392   -0.0000   -0.1323

  MBIS Radial Moments:
   Center  Symbol  Z      [a0^2]      [a0^3]      [a0^4]      
      1       C    6   22.464835   64.388298   217.241997
      2       H    1    2.079650    4.443318   11.384227

  MBIS Valence Widths: [a0]
   Center  Symbol  Z     Width
      1       C    6    0.598120
      2       H    1    0.421474

*** tstop() called on Mac.lan at Sun Aug 10 17:35:47 2025
Module time:
	user time   =       2.62 seconds =       0.04 minutes
	system time =       2.37 seconds =       0.04 minutes
	total time  =          0 seconds =       0.00 minutes
Total time:
	user time   =      11.51 seconds =       0.19 minutes
	system time =       4.74 seconds =       0.08 minutes
	total time  =          1 seconds =       0.02 minutes

    Psi4 stopped on: Sunday, 10 August 2025 05:35PM
    Psi4 wall time for execution: 0:00:01.58

*** Psi4 exiting successfully. Buy a developer a beer!
