
    -----------------------------------------------------------------------
          Psi4: An Open-Source Ab Initio Electronic Structure Package
                               Psi4 1.9.1 release

                         Git: Rev {} zzzzzzz 


    D. G. A. Smith, L. A. Burns, A. C. Simmonett, R. M. Parrish,
    M. C. Schieber, R. Galvelis, P. Kraus, H. Kruse, R. Di Remigio,
    A. Alenaizan, A. M. James, S. Lehtola, J. P. Misiewicz, M. Scheurer,
    R. A. Shaw, J. B. Schriber, Y. Xie, Z. L. Glick, D. A. Sirianni,
    J. S. O'Brien, J. M. Waldrop, A. Kumar, E. G. Hohenstein,
    B. P. Pritchard, B. R. Brooks, H. F. Schaefer III, A. Yu. Sokolov,
    K. Patkowski, A. E. DePrince III, U. Bozkaya, R. A. King,
    F. A. Evangelista, J. M. Turney, T. D. Crawford, C. D. Sherrill,
    J. Chem. Phys. 152(18) 184108 (2020). https://doi.org/10.1063/5.0006002

                            Additional Code Authors
    E. T. Seidl, C. L. Janssen, E. F. Valeev, M. L. Leininger,
    J. F. Gonthier, R. M. Richard, H. R. McAlexander, M. Saitow, X. Wang,
    P. Verma, M. H. Lechner, A. Jiang, S. Behnle, A. G. Heide,
    M. F. Herbst, and D. L. Poole

             Previous Authors, Complete List of Code Contributors,
                       and Citations for Specific Modules
    https://github.com/psi4/psi4/blob/master/codemeta.json
    https://github.com/psi4/psi4/graphs/contributors
    http://psicode.org/psi4manual/master/introduction.html#citing-psifour

    -----------------------------------------------------------------------


    Psi4 started on: Sunday, 10 August 2025 05:36PM

    Process ID: 49129
    Host:       Mac.lan
    PSIDATADIR: /Users/joseantoniorodriguesromero/anaconda3/share/psi4
    Memory:     500.0 MiB
    Threads:    1
    
  ==> Input File <==

--------------------------------------------------------------------------
molecule { 
-1 3
C           0.000000           0.000000           0.000000
H           0.000000           0.000000           1.672922
}

set { 
basis              cc-pvtz
reference          uks
maxiter            500
DAMPING_PERCENTAGE 1
E_CONVERGENCE      1.0E-8
D_CONVERGENCE      1.0E-8
DIIS_MAX_VECS      400
MBIS_MAXITER       8000
guess              read
}

E, wfn = energy('b3lyp', restart_file='last_wfn', return_wfn=True)
properties('b3lyp','MBIS_CHARGES', wfn=wfn)
wfn.to_file('last_wfn')
--------------------------------------------------------------------------

Scratch directory: /tmp/
 Found user provided orbital data. Setting orbital guess to READ 
 Copying restart file <last_wfn.npy> to </tmp/scan_HC_48.default.49129.180.npy> for internal processing
   => Libint2 <=

    Primary   basis highest AM E, G, H:  6, 6, 3
    Auxiliary basis highest AM E, G, H:  7, 7, 4
    Onebody   basis highest AM E, G, H:  -, -, -
    Solid Harmonics ordering:            Gaussian

*** tstart() called on Mac.lan
*** at Sun Aug 10 17:36:31 2025

   => Loading Basis Set <=

    Name: CC-PVTZ
    Role: ORBITAL
    Keyword: BASIS
    atoms 1 entry C          line   186 file /Users/joseantoniorodriguesromero/anaconda3/share/psi4/basis/cc-pvtz.gbs 
    atoms 2 entry H          line    23 file /Users/joseantoniorodriguesromero/anaconda3/share/psi4/basis/cc-pvtz.gbs 


         ---------------------------------------------------------
                                   SCF
               by Justin Turney, Rob Parrish, Andy Simmonett
                          and Daniel G. A. Smith
                              UKS Reference
                        1 Threads,    500 MiB Core
         ---------------------------------------------------------

  ==> Geometry <==

    Molecular point group: c2v
    Full point group: C_inf_v

    Geometry (in Angstrom), charge = -1, multiplicity = 3:

       Center              X                  Y                   Z               Mass       
    ------------   -----------------  -----------------  -----------------  -----------------
         C            0.000000000000     0.000000000000    -0.129615263458    12.000000000000
         H            0.000000000000     0.000000000000     1.543306736542     1.007825032230

  Running in c2v symmetry.

  Rotational constants: A = ************  B =      6.47863  C =      6.47863 [cm^-1]
  Rotational constants: A = ************  B = 194224.54552  C = 194224.54552 [MHz]
  Nuclear repulsion =    1.897914704941414

  Charge       = -1
  Multiplicity = 3
  Electrons    = 8
  Nalpha       = 5
  Nbeta        = 3

  ==> Algorithm <==

  SCF Algorithm Type is DF.
  DIIS enabled.
  MOM disabled.
  Fractional occupation disabled.
  Guess Type is READ.
  Energy threshold   = 1.00e-08
  Density threshold  = 1.00e-08
  Integral threshold = 1.00e-12

  ==> Primary Basis <==

  Basis Set: CC-PVTZ
    Blend: CC-PVTZ
    Number of shells: 16
    Number of basis functions: 44
    Number of Cartesian functions: 50
    Spherical Harmonics?: true
    Max angular momentum: 3

  ==> DFT Potential <==

   => LibXC <=

    Version 6.2.2
    S. Lehtola, C. Steigemann, M. J.T. Oliveira, and M. A.L. Marques.,  SoftwareX 7, 1–5 (2018) (10.1016/j.softx.2017.11.002)

   => Composite Functional: B3LYP <= 

    B3LYP Hyb-GGA Exchange-Correlation Functional

    P. J. Stephens, F. J. Devlin, C. F. Chabalowski, and M. J. Frisch.,  J. Phys. Chem. 98, 11623 (1994) (10.1021/j100096a001)

    Deriv               =              1
    GGA                 =           TRUE
    Meta                =          FALSE

    Exchange Hybrid     =           TRUE
    MP2 Hybrid          =          FALSE

   => Exchange Functionals <=

    0.0800   Slater exchange
    0.7200         Becke 88

   => Exact (HF) Exchange <=

    0.2000               HF 

   => Correlation Functionals <=

    0.1900   Vosko, Wilk & Nusair (VWN5_RPA)
    0.8100   Lee, Yang & Parr

   => LibXC Density Thresholds  <==

    XC_HYB_GGA_XC_B3LYP:  1.00E-15 

   => Molecular Quadrature <=

    Radial Scheme          =       TREUTLER
    Pruning Scheme         =           NONE
    Nuclear Scheme         =       TREUTLER

    Blocking Scheme        =         OCTREE
    BS radius alpha        =              1
    Pruning alpha          =              1
    Radial Points          =             75
    Spherical Points       =            302
    Total Points           =          43896
    Total Blocks           =            384
    Max Points             =            255
    Max Functions          =             44
    Weights Tolerance      =       1.00E-15

   => Loading Basis Set <=

    Name: (CC-PVTZ AUX)
    Role: JKFIT
    Keyword: DF_BASIS_SCF
    atoms 1 entry C          line   125 file /Users/joseantoniorodriguesromero/anaconda3/share/psi4/basis/cc-pvtz-jkfit.gbs 
    atoms 2 entry H          line    51 file /Users/joseantoniorodriguesromero/anaconda3/share/psi4/basis/cc-pvtz-jkfit.gbs 

   => Loading Basis Set <=

    Name: CC-PVTZ
    Role: ORBITAL
    Keyword: BASIS
    atoms 1 entry C          line   186 file /Users/joseantoniorodriguesromero/anaconda3/share/psi4/basis/cc-pvtz.gbs 
    atoms 2 entry H          line    23 file /Users/joseantoniorodriguesromero/anaconda3/share/psi4/basis/cc-pvtz.gbs 

  Reading orbitals from file /tmp/scan_HC_48.default.49129.180.npy, no projection.

  ==> Integral Setup <==

  DFHelper Memory: AOs need 0.002 GiB; user supplied 0.311 GiB. 
  Using in-core AOs.

  ==> MemDFJK: Density-Fitted J/K Matrices <==

    J tasked:                   Yes
    K tasked:                   Yes
    wK tasked:                   No
    OpenMP threads:               1
    Memory [MiB]:               318
    Algorithm:                 Core
    Schwarz Cutoff:           1E-12
    Mask sparsity (%):       0.0000
    Fitting Condition:        1E-10

   => Auxiliary Basis Set <=

  Basis Set: (CC-PVTZ AUX)
    Blend: CC-PVTZ-JKFIT
    Number of shells: 35
    Number of basis functions: 109
    Number of Cartesian functions: 131
    Spherical Harmonics?: true
    Max angular momentum: 4

  Cached 100.0% of DFT collocation blocks in 0.055 [GiB].

  Minimum eigenvalue in the overlap matrix is 2.5044856478E-02.
  Reciprocal condition number of the overlap matrix is 7.1600120518E-03.
    Using symmetric orthogonalization.

  ==> Pre-Iterations <==

  SCF Guess: Orbitals guess was supplied from a previous computation.

   -------------------------------------------------------
    Irrep   Nso     Nmo     Nalpha   Nbeta   Ndocc  Nsocc
   -------------------------------------------------------
     A1        20      20       3       3       3       0
     A2         4       4       0       0       0       0
     B1        10      10       1       0       0       1
     B2        10      10       1       0       0       1
   -------------------------------------------------------
    Total      44      44       5       3       3       2
   -------------------------------------------------------

  ==> Iterations <==

                           Total Energy        Delta E     RMS |[F,P]|

   @DF-UKS iter   0:   -38.48532041326251   -3.84853e+01   7.23511e-04 
   @DF-UKS iter   1:   -38.48747778055280   -2.15737e-03   2.99409e-04 DIIS/ADIIS
   @DF-UKS iter   2:   -38.48744218986536    3.55907e-05   4.00675e-04 DIIS/ADIIS/DAMP=1%
   @DF-UKS iter   3:   -38.48772014118563   -2.77951e-04   5.52133e-05 DIIS/DAMP=1%
   @DF-UKS iter   4:   -38.48749817642287    2.21965e-04   5.40557e-06 DIIS/DAMP=1%
   @DF-UKS iter   5:   -38.48752776260721   -2.95862e-05   2.83738e-06 DIIS/DAMP=1%
   @DF-UKS iter   6:   -38.48752593859216    1.82402e-06   1.05540e-06 DIIS/DAMP=1%
   @DF-UKS iter   7:   -38.48752651345169   -5.74860e-07   3.74371e-07 DIIS/DAMP=1%
   @DF-UKS iter   8:   -38.48752675309004   -2.39638e-07   6.24900e-08 DIIS/DAMP=1%
   @DF-UKS iter   9:   -38.48752653921058    2.13879e-07   6.45054e-09 DIIS/DAMP=1%
   @DF-UKS iter  10:   -38.48752656608053   -2.68699e-08   1.33289e-09 DIIS/DAMP=1%
   @DF-UKS iter  11:   -38.48752656729381   -1.21329e-09   1.00275e-10 DIIS/DAMP=1%
  Energy and wave function converged.


  ==> Post-Iterations <==

   Electrons on quadrature grid:
      Nalpha   =    4.9999999582 ; deviation = -4.176e-08
      Nbeta    =    2.9999999241 ; deviation = -7.592e-08
      Ntotal   =    7.9999998823 ; deviation = -1.177e-07 

   @Spin Contamination Metric:   1.254963810E-02
   @S^2 Expected:                2.000000000E+00
   @S^2 Observed:                2.012549638E+00
   @S   Expected:                1.000000000E+00
   @S   Observed:                1.000000000E+00

    Orbital Energies [Eh]
    ---------------------

    Alpha Occupied:                                                       

       1A1    -9.943460     2A1    -0.271164     3A1     0.000924  
       1B2     0.057513     1B1     0.057513  

    Alpha Virtual:                                                        

       4A1     0.236922     5A1     0.505480     2B2     0.552091  
       2B1     0.552091     6A1     0.572401     7A1     0.713793  
       3B2     0.824791     3B1     0.824791     1A2     0.944283  
       8A1     0.944283     9A1     1.072611     4B1     1.165649  
       4B2     1.165649    10A1     1.460739     5B2     2.226909  
       5B1     2.226909    11A1     2.352897    12A1     2.711274  
       6B1     2.873160     6B2     2.873160    13A1     2.906262  
      14A1     2.947828     2A2     2.947828     7B1     2.961263  
       7B2     2.961263    15A1     3.211818     3A2     3.211819  
       8B2     3.271433     8B1     3.271433    16A1     3.509914  
      17A1     3.544396     4A2     3.544410     9B1     3.848371  
       9B2     3.848371    18A1     3.948657    10B1     4.106189  
      10B2     4.106189    19A1     4.295588    20A1     5.207571  

    Beta Occupied:                                                        

       1A1    -9.917777     2A1    -0.179546     3A1     0.015167  

    Beta Virtual:                                                         

       1B2     0.221709     1B1     0.221709     4A1     0.257312  
       5A1     0.504469     6A1     0.593151     2B2     0.622309  
       2B1     0.622309     7A1     0.761834     3B2     0.841748  
       3B1     0.841748     8A1     1.020722     1A2     1.020722  
       9A1     1.091130     4B1     1.191181     4B2     1.191181  
      10A1     1.471603     5B2     2.307313     5B1     2.307313  
      11A1     2.371177    12A1     2.710928     6B1     2.911565  
       6B2     2.911565    13A1     2.939360    14A1     3.012081  
       2A2     3.012082     7B1     3.057888     7B2     3.057888  
      15A1     3.328903     3A2     3.328904     8B2     3.339716  
       8B1     3.339716    16A1     3.543472    17A1     3.544560  
       4A2     3.544574     9B1     3.846553     9B2     3.846553  
      18A1     3.992473    10B1     4.104134    10B2     4.104134  
      19A1     4.291730    20A1     5.222600  

    Final Occupation by Irrep:
             A1    A2    B1    B2 
    DOCC [     3,    0,    0,    0 ]
    SOCC [     0,    0,    1,    1 ]
    NA   [     3,    0,    1,    1 ]
    NB   [     3,    0,    0,    0 ]

  @DF-UKS Final Energy:   -38.48752656729381

   => Energetics <=

    Nuclear Repulsion Energy =              1.8979147049414140
    One-Electron Energy =                 -57.2166664133355027
    Two-Electron Energy =                  21.5068837135499962
    DFT Exchange-Correlation Energy =      -4.6756585724497164
    Empirical Dispersion Energy =           0.0000000000000000
    VV10 Nonlocal Energy =                  0.0000000000000000
    Total Energy =                        -38.4875265672938127

  UHF NO Occupations:
  HONO-2 :    3 A1 1.9948556
  HONO-1 :    1 B1 1.0000000
  HONO-0 :    1 B2 1.0000000
  LUNO+0 :    4 A1 0.0051444
  LUNO+1 :    5 A1 0.0011432
  LUNO+2 :    6 A1 0.0000011
  LUNO+3 :    7 A1 0.0000000


Computation Completed


Properties will be evaluated at   0.000000,   0.000000,   0.000000 [a0]

Properties computed using the SCF density matrix


 Multipole Moments:

 ------------------------------------------------------------------------------------
     Multipole            Electronic (a.u.)      Nuclear  (a.u.)        Total (a.u.)
 ------------------------------------------------------------------------------------

 L = 1.  Multiply by 2.5417464519 to convert [e a0] to [Debye]
 Dipole X            :          0.0000000            0.0000000            0.0000000
 Dipole Y            :          0.0000000            0.0000000            0.0000000
 Dipole Z            :         -2.0313660            1.4468030           -0.5845630
 Magnitude           :                                                    0.5845630

 ------------------------------------------------------------------------------------

*** tstop() called on Mac.lan at Sun Aug 10 17:36:32 2025
Module time:
	user time   =      10.99 seconds =       0.18 minutes
	system time =       1.79 seconds =       0.03 minutes
	total time  =          1 seconds =       0.02 minutes
Total time:
	user time   =      10.99 seconds =       0.18 minutes
	system time =       1.79 seconds =       0.03 minutes
	total time  =          1 seconds =       0.02 minutes

*** tstart() called on Mac.lan
*** at Sun Aug 10 17:36:32 2025

   => Libint2 <=

    Primary   basis highest AM E, G, H:  6, 6, 3
    Auxiliary basis highest AM E, G, H:  7, 7, 4
    Onebody   basis highest AM E, G, H:  -, -, -
    Solid Harmonics ordering:            Gaussian
   => Loading Basis Set <=

    Name: CC-PVTZ
    Role: ORBITAL
    Keyword: BASIS
    atoms 1 entry C          line   186 file /Users/joseantoniorodriguesromero/anaconda3/share/psi4/basis/cc-pvtz.gbs 
    atoms 2 entry H          line    23 file /Users/joseantoniorodriguesromero/anaconda3/share/psi4/basis/cc-pvtz.gbs 


         ---------------------------------------------------------
                                   SCF
               by Justin Turney, Rob Parrish, Andy Simmonett
                          and Daniel G. A. Smith
                              UKS Reference
                        1 Threads,    500 MiB Core
         ---------------------------------------------------------

  ==> Geometry <==

    Molecular point group: c2v
    Full point group: C_inf_v

    Geometry (in Angstrom), charge = -1, multiplicity = 3:

       Center              X                  Y                   Z               Mass       
    ------------   -----------------  -----------------  -----------------  -----------------
         C            0.000000000000     0.000000000000    -0.129615263458    12.000000000000
         H            0.000000000000     0.000000000000     1.543306736542     1.007825032230

  Running in c2v symmetry.

  Rotational constants: A = ************  B =      6.47863  C =      6.47863 [cm^-1]
  Rotational constants: A = ************  B = 194224.54552  C = 194224.54552 [MHz]
  Nuclear repulsion =    1.897914704941414

  Charge       = -1
  Multiplicity = 3
  Electrons    = 8
  Nalpha       = 5
  Nbeta        = 3

  ==> Algorithm <==

  SCF Algorithm Type is DF.
  DIIS enabled.
  MOM disabled.
  Fractional occupation disabled.
  Guess Type is READ.
  Energy threshold   = 1.00e-08
  Density threshold  = 1.00e-08
  Integral threshold = 1.00e-12

  ==> Primary Basis <==

  Basis Set: CC-PVTZ
    Blend: CC-PVTZ
    Number of shells: 16
    Number of basis functions: 44
    Number of Cartesian functions: 50
    Spherical Harmonics?: true
    Max angular momentum: 3

  ==> DFT Potential <==

   => LibXC <=

    Version 6.2.2
    S. Lehtola, C. Steigemann, M. J.T. Oliveira, and M. A.L. Marques.,  SoftwareX 7, 1–5 (2018) (10.1016/j.softx.2017.11.002)

   => Composite Functional: B3LYP <= 

    B3LYP Hyb-GGA Exchange-Correlation Functional

    P. J. Stephens, F. J. Devlin, C. F. Chabalowski, and M. J. Frisch.,  J. Phys. Chem. 98, 11623 (1994) (10.1021/j100096a001)

    Deriv               =              1
    GGA                 =           TRUE
    Meta                =          FALSE

    Exchange Hybrid     =           TRUE
    MP2 Hybrid          =          FALSE

   => Exchange Functionals <=

    0.0800   Slater exchange
    0.7200         Becke 88

   => Exact (HF) Exchange <=

    0.2000               HF 

   => Correlation Functionals <=

    0.1900   Vosko, Wilk & Nusair (VWN5_RPA)
    0.8100   Lee, Yang & Parr

   => LibXC Density Thresholds  <==

    XC_HYB_GGA_XC_B3LYP:  1.00E-15 

   => Molecular Quadrature <=

    Radial Scheme          =       TREUTLER
    Pruning Scheme         =           NONE
    Nuclear Scheme         =       TREUTLER

    Blocking Scheme        =         OCTREE
    BS radius alpha        =              1
    Pruning alpha          =              1
    Radial Points          =             75
    Spherical Points       =            302
    Total Points           =          43896
    Total Blocks           =            384
    Max Points             =            255
    Max Functions          =             44
    Weights Tolerance      =       1.00E-15

   => Loading Basis Set <=

    Name: (CC-PVTZ AUX)
    Role: JKFIT
    Keyword: DF_BASIS_SCF
    atoms 1 entry C          line   125 file /Users/joseantoniorodriguesromero/anaconda3/share/psi4/basis/cc-pvtz-jkfit.gbs 
    atoms 2 entry H          line    51 file /Users/joseantoniorodriguesromero/anaconda3/share/psi4/basis/cc-pvtz-jkfit.gbs 

   => Loading Basis Set <=

    Name: CC-PVTZ
    Role: ORBITAL
    Keyword: BASIS
    atoms 1 entry C          line   186 file /Users/joseantoniorodriguesromero/anaconda3/share/psi4/basis/cc-pvtz.gbs 
    atoms 2 entry H          line    23 file /Users/joseantoniorodriguesromero/anaconda3/share/psi4/basis/cc-pvtz.gbs 

  Reading orbitals from file /tmp/scan_HC_48.default.49129.180.npy, no projection.

  ==> Integral Setup <==

  DFHelper Memory: AOs need 0.002 GiB; user supplied 0.311 GiB. 
  Using in-core AOs.

  ==> MemDFJK: Density-Fitted J/K Matrices <==

    J tasked:                   Yes
    K tasked:                   Yes
    wK tasked:                   No
    OpenMP threads:               1
    Memory [MiB]:               318
    Algorithm:                 Core
    Schwarz Cutoff:           1E-12
    Mask sparsity (%):       0.0000
    Fitting Condition:        1E-10

   => Auxiliary Basis Set <=

  Basis Set: (CC-PVTZ AUX)
    Blend: CC-PVTZ-JKFIT
    Number of shells: 35
    Number of basis functions: 109
    Number of Cartesian functions: 131
    Spherical Harmonics?: true
    Max angular momentum: 4

  Cached 100.0% of DFT collocation blocks in 0.055 [GiB].

  Minimum eigenvalue in the overlap matrix is 2.5044856478E-02.
  Reciprocal condition number of the overlap matrix is 7.1600120518E-03.
    Using symmetric orthogonalization.

  ==> Pre-Iterations <==

  SCF Guess: Orbitals guess was supplied from a previous computation.

   -------------------------------------------------------
    Irrep   Nso     Nmo     Nalpha   Nbeta   Ndocc  Nsocc
   -------------------------------------------------------
     A1        20      20       3       3       3       0
     A2         4       4       0       0       0       0
     B1        10      10       1       0       0       1
     B2        10      10       1       0       0       1
   -------------------------------------------------------
    Total      44      44       5       3       3       2
   -------------------------------------------------------

  ==> Iterations <==

                           Total Energy        Delta E     RMS |[F,P]|

   @DF-UKS iter   0:   -38.48752656695329   -3.84875e+01   1.35370e-11 
   @DF-UKS iter   1:   -38.48752656695335   -5.68434e-14   1.10658e-11 DIIS
  Energy and wave function converged.


  ==> Post-Iterations <==

   Electrons on quadrature grid:
      Nalpha   =    4.9999999582 ; deviation = -4.176e-08
      Nbeta    =    2.9999999241 ; deviation = -7.592e-08
      Ntotal   =    7.9999998823 ; deviation = -1.177e-07 

   @Spin Contamination Metric:   1.254963777E-02
   @S^2 Expected:                2.000000000E+00
   @S^2 Observed:                2.012549638E+00
   @S   Expected:                1.000000000E+00
   @S   Observed:                1.000000000E+00

    Orbital Energies [Eh]
    ---------------------

    Alpha Occupied:                                                       

       1A1    -9.943460     2A1    -0.271164     3A1     0.000924  
       1B2     0.057513     1B1     0.057513  

    Alpha Virtual:                                                        

       4A1     0.236922     5A1     0.505480     2B2     0.552091  
       2B1     0.552091     6A1     0.572401     7A1     0.713793  
       3B2     0.824791     3B1     0.824791     1A2     0.944283  
       8A1     0.944283     9A1     1.072611     4B1     1.165649  
       4B2     1.165649    10A1     1.460739     5B2     2.226909  
       5B1     2.226909    11A1     2.352897    12A1     2.711274  
       6B1     2.873160     6B2     2.873160    13A1     2.906262  
      14A1     2.947828     2A2     2.947828     7B1     2.961263  
       7B2     2.961263    15A1     3.211818     3A2     3.211819  
       8B2     3.271433     8B1     3.271433    16A1     3.509914  
      17A1     3.544396     4A2     3.544410     9B1     3.848371  
       9B2     3.848371    18A1     3.948657    10B1     4.106189  
      10B2     4.106189    19A1     4.295588    20A1     5.207571  

    Beta Occupied:                                                        

       1A1    -9.917777     2A1    -0.179546     3A1     0.015167  

    Beta Virtual:                                                         

       1B2     0.221709     1B1     0.221709     4A1     0.257312  
       5A1     0.504469     6A1     0.593151     2B2     0.622309  
       2B1     0.622309     7A1     0.761834     3B2     0.841748  
       3B1     0.841748     8A1     1.020722     1A2     1.020722  
       9A1     1.091130     4B1     1.191181     4B2     1.191181  
      10A1     1.471603     5B2     2.307313     5B1     2.307313  
      11A1     2.371177    12A1     2.710928     6B1     2.911565  
       6B2     2.911565    13A1     2.939360    14A1     3.012081  
       2A2     3.012082     7B1     3.057888     7B2     3.057888  
      15A1     3.328903     3A2     3.328904     8B2     3.339716  
       8B1     3.339716    16A1     3.543472    17A1     3.544560  
       4A2     3.544574     9B2     3.846553     9B1     3.846553  
      18A1     3.992473    10B1     4.104134    10B2     4.104134  
      19A1     4.291730    20A1     5.222600  

    Final Occupation by Irrep:
             A1    A2    B1    B2 
    DOCC [     3,    0,    0,    0 ]
    SOCC [     0,    0,    1,    1 ]
    NA   [     3,    0,    1,    1 ]
    NB   [     3,    0,    0,    0 ]

  @DF-UKS Final Energy:   -38.48752656695335

   => Energetics <=

    Nuclear Repulsion Energy =              1.8979147049414140
    One-Electron Energy =                 -57.2166664143752968
    Two-Electron Energy =                  21.5068837150941619
    DFT Exchange-Correlation Energy =      -4.6756585726136297
    Empirical Dispersion Energy =           0.0000000000000000
    VV10 Nonlocal Energy =                  0.0000000000000000
    Total Energy =                        -38.4875265669533491

  UHF NO Occupations:
  HONO-2 :    3 A1 1.9948556
  HONO-1 :    1 B1 1.0000000
  HONO-0 :    1 B2 1.0000000
  LUNO+0 :    4 A1 0.0051444
  LUNO+1 :    5 A1 0.0011432
  LUNO+2 :    6 A1 0.0000011
  LUNO+3 :    7 A1 0.0000000


Computation Completed


Properties will be evaluated at   0.000000,   0.000000,   0.000000 [a0]

Properties computed using the B3LYP density matrix


 Multipole Moments:

 ------------------------------------------------------------------------------------
     Multipole            Electronic (a.u.)      Nuclear  (a.u.)        Total (a.u.)
 ------------------------------------------------------------------------------------

 L = 1.  Multiply by 2.5417464519 to convert [e a0] to [Debye]
 Dipole X            :          0.0000000            0.0000000            0.0000000
 Dipole Y            :          0.0000000            0.0000000            0.0000000
 Dipole Z            :         -2.0313660            1.4468030           -0.5845630
 Magnitude           :                                                    0.5845630

 L = 2.  Multiply by 1.3450342976 to convert [e a0^2] to [Debye ang]
 Quadrupole XX       :         -8.3031932            0.0000000           -8.3031932
 Quadrupole XY       :          0.0000000            0.0000000            0.0000000
 Quadrupole XZ       :          0.0000000            0.0000000            0.0000000
 Quadrupole YY       :         -8.3031932            0.0000000           -8.3031932
 Quadrupole YZ       :          0.0000000            0.0000000            0.0000000
 Quadrupole ZZ       :        -19.9274145            8.8655126          -11.0619019
 Traceless XX        :          3.8747405           -2.9551709            0.9195696
 Traceless YY        :          3.8747405           -2.9551709            0.9195696
 Traceless ZZ        :         -7.7494809            5.9103418           -1.8391392

 ------------------------------------------------------------------------------------
  ==> Computing MBIS Charges <==

  Electron Count from Grid (Expected Number):  8.00000 ( 8.00000)
  Difference: -0.00000

  MBIS Charges: (a.u.)
   Center  Symbol  Z      Pop.       Charge
      1       C    6    6.689342   -0.689342
      2       H    1    1.310658   -0.310658

  MBIS Dipoles: [e a0]
   Center  Symbol  Z        X           Y           Z
      1       C    6   -0.000000   -0.000000    0.170974
      2       H    1    0.000000   -0.000000   -0.018372

  MBIS Quadrupoles: [e a0^2]
   Center  Symbol  Z      XX        XY        XZ        YY        YZ        ZZ
      1       C    6   -6.6845   -0.0000    0.0000   -6.6845    0.0000   -6.5442
      2       H    1   -1.6187   -0.0000    0.0000   -1.6187   -0.0000   -1.6431

  MBIS Octupoles: [e a0^3]
   Center  Symbol  Z      XXX       XXY       XXZ       XYY       XYZ       XZZ       YYY       YYZ       YZZ       ZZZ
      1       C    6    0.0000    0.0000    0.0984   -0.0000    0.0000   -0.0000   -0.0000    0.0984   -0.0000   -0.7874
      2       H    1    0.0000    0.0000   -0.1043    0.0000   -0.0000    0.0000   -0.0000   -0.1043   -0.0000   -0.1446

  MBIS Radial Moments:
   Center  Symbol  Z      [a0^2]      [a0^3]      [a0^4]      
      1       C    6   19.913233   55.436031   182.353368
      2       H    1    4.880467   13.474598   43.710236

  MBIS Valence Widths: [a0]
   Center  Symbol  Z     Width
      1       C    6    0.582323
      2       H    1    0.556035

*** tstop() called on Mac.lan at Sun Aug 10 17:36:32 2025
Module time:
	user time   =       2.92 seconds =       0.05 minutes
	system time =       1.42 seconds =       0.02 minutes
	total time  =          0 seconds =       0.00 minutes
Total time:
	user time   =      14.01 seconds =       0.23 minutes
	system time =       3.31 seconds =       0.06 minutes
	total time  =          1 seconds =       0.02 minutes

    Psi4 stopped on: Sunday, 10 August 2025 05:36PM
    Psi4 wall time for execution: 0:00:01.68

*** Psi4 exiting successfully. Buy a developer a beer!
