
    -----------------------------------------------------------------------
          Psi4: An Open-Source Ab Initio Electronic Structure Package
                               Psi4 1.9.1 release

                         Git: Rev {} zzzzzzz 


    D. G. A. Smith, L. A. Burns, A. C. Simmonett, R. M. Parrish,
    M. C. Schieber, R. Galvelis, P. Kraus, H. Kruse, R. Di Remigio,
    A. Alenaizan, A. M. James, S. Lehtola, J. P. Misiewicz, M. Scheurer,
    R. A. Shaw, J. B. Schriber, Y. Xie, Z. L. Glick, D. A. Sirianni,
    J. S. O'Brien, J. M. Waldrop, A. Kumar, E. G. Hohenstein,
    B. P. Pritchard, B. R. Brooks, H. F. Schaefer III, A. Yu. Sokolov,
    K. Patkowski, A. E. DePrince III, U. Bozkaya, R. A. King,
    F. A. Evangelista, J. M. Turney, T. D. Crawford, C. D. Sherrill,
    J. Chem. Phys. 152(18) 184108 (2020). https://doi.org/10.1063/5.0006002

                            Additional Code Authors
    E. T. Seidl, C. L. Janssen, E. F. Valeev, M. L. Leininger,
    J. F. Gonthier, R. M. Richard, H. R. McAlexander, M. Saitow, X. Wang,
    P. Verma, M. H. Lechner, A. Jiang, S. Behnle, A. G. Heide,
    M. F. Herbst, and D. L. Poole

             Previous Authors, Complete List of Code Contributors,
                       and Citations for Specific Modules
    https://github.com/psi4/psi4/blob/master/codemeta.json
    https://github.com/psi4/psi4/graphs/contributors
    http://psicode.org/psi4manual/master/introduction.html#citing-psifour

    -----------------------------------------------------------------------


    Psi4 started on: Sunday, 10 August 2025 05:38PM

    Process ID: 49193
    Host:       Mac.lan
    PSIDATADIR: /Users/joseantoniorodriguesromero/anaconda3/share/psi4
    Memory:     500.0 MiB
    Threads:    1
    
  ==> Input File <==

--------------------------------------------------------------------------
molecule { 
-1 1
O           0.000000           0.000000           0.000000
H           0.000000           0.000000           1.160319
}

set { 
basis              cc-pvtz
reference          uks
maxiter            500
DAMPING_PERCENTAGE 1
E_CONVERGENCE      1.0E-8
D_CONVERGENCE      1.0E-8
DIIS_MAX_VECS      400
MBIS_MAXITER       8000
guess              read
}

E, wfn = energy('b3lyp', restart_file='last_wfn', return_wfn=True)
properties('b3lyp','MBIS_CHARGES', wfn=wfn)
wfn.to_file('last_wfn')
--------------------------------------------------------------------------

Scratch directory: /tmp/
 Found user provided orbital data. Setting orbital guess to READ 
 Copying restart file <last_wfn.npy> to </tmp/scan_HO_37.default.49193.180.npy> for internal processing
   => Libint2 <=

    Primary   basis highest AM E, G, H:  6, 6, 3
    Auxiliary basis highest AM E, G, H:  7, 7, 4
    Onebody   basis highest AM E, G, H:  -, -, -
    Solid Harmonics ordering:            Gaussian

*** tstart() called on Mac.lan
*** at Sun Aug 10 17:38:12 2025

   => Loading Basis Set <=

    Name: CC-PVTZ
    Role: ORBITAL
    Keyword: BASIS
    atoms 1 entry O          line   262 file /Users/joseantoniorodriguesromero/anaconda3/share/psi4/basis/cc-pvtz.gbs 
    atoms 2 entry H          line    23 file /Users/joseantoniorodriguesromero/anaconda3/share/psi4/basis/cc-pvtz.gbs 


         ---------------------------------------------------------
                                   SCF
               by Justin Turney, Rob Parrish, Andy Simmonett
                          and Daniel G. A. Smith
                              UKS Reference
                        1 Threads,    500 MiB Core
         ---------------------------------------------------------

  ==> Geometry <==

    Molecular point group: c2v
    Full point group: C_inf_v

    Geometry (in Angstrom), charge = -1, multiplicity = 1:

       Center              X                  Y                   Z               Mass       
    ------------   -----------------  -----------------  -----------------  -----------------
         O            0.000000000000     0.000000000000    -0.068777065198    15.994914619570
         H            0.000000000000     0.000000000000     1.091541934802     1.007825032230

  Running in c2v symmetry.

  Rotational constants: A = ************  B =     13.20668  C =     13.20668 [cm^-1]
  Rotational constants: A = ************  B = 395926.18877  C = 395926.18877 [MHz]
  Nuclear repulsion =    3.648494668586828

  Charge       = -1
  Multiplicity = 1
  Electrons    = 10
  Nalpha       = 5
  Nbeta        = 5

  ==> Algorithm <==

  SCF Algorithm Type is DF.
  DIIS enabled.
  MOM disabled.
  Fractional occupation disabled.
  Guess Type is READ.
  Energy threshold   = 1.00e-08
  Density threshold  = 1.00e-08
  Integral threshold = 1.00e-12

  ==> Primary Basis <==

  Basis Set: CC-PVTZ
    Blend: CC-PVTZ
    Number of shells: 16
    Number of basis functions: 44
    Number of Cartesian functions: 50
    Spherical Harmonics?: true
    Max angular momentum: 3

  ==> DFT Potential <==

   => LibXC <=

    Version 6.2.2
    S. Lehtola, C. Steigemann, M. J.T. Oliveira, and M. A.L. Marques.,  SoftwareX 7, 1–5 (2018) (10.1016/j.softx.2017.11.002)

   => Composite Functional: B3LYP <= 

    B3LYP Hyb-GGA Exchange-Correlation Functional

    P. J. Stephens, F. J. Devlin, C. F. Chabalowski, and M. J. Frisch.,  J. Phys. Chem. 98, 11623 (1994) (10.1021/j100096a001)

    Deriv               =              1
    GGA                 =           TRUE
    Meta                =          FALSE

    Exchange Hybrid     =           TRUE
    MP2 Hybrid          =          FALSE

   => Exchange Functionals <=

    0.0800   Slater exchange
    0.7200         Becke 88

   => Exact (HF) Exchange <=

    0.2000               HF 

   => Correlation Functionals <=

    0.1900   Vosko, Wilk & Nusair (VWN5_RPA)
    0.8100   Lee, Yang & Parr

   => LibXC Density Thresholds  <==

    XC_HYB_GGA_XC_B3LYP:  1.00E-15 

   => Molecular Quadrature <=

    Radial Scheme          =       TREUTLER
    Pruning Scheme         =           NONE
    Nuclear Scheme         =       TREUTLER

    Blocking Scheme        =         OCTREE
    BS radius alpha        =              1
    Pruning alpha          =              1
    Radial Points          =             75
    Spherical Points       =            302
    Total Points           =          44160
    Total Blocks           =            391
    Max Points             =            256
    Max Functions          =             44
    Weights Tolerance      =       1.00E-15

   => Loading Basis Set <=

    Name: (CC-PVTZ AUX)
    Role: JKFIT
    Keyword: DF_BASIS_SCF
    atoms 1 entry O          line   229 file /Users/joseantoniorodriguesromero/anaconda3/share/psi4/basis/cc-pvtz-jkfit.gbs 
    atoms 2 entry H          line    51 file /Users/joseantoniorodriguesromero/anaconda3/share/psi4/basis/cc-pvtz-jkfit.gbs 

   => Loading Basis Set <=

    Name: CC-PVTZ
    Role: ORBITAL
    Keyword: BASIS
    atoms 1 entry O          line   262 file /Users/joseantoniorodriguesromero/anaconda3/share/psi4/basis/cc-pvtz.gbs 
    atoms 2 entry H          line    23 file /Users/joseantoniorodriguesromero/anaconda3/share/psi4/basis/cc-pvtz.gbs 

  Reading orbitals from file /tmp/scan_HO_37.default.49193.180.npy, no projection.

  ==> Integral Setup <==

  DFHelper Memory: AOs need 0.002 GiB; user supplied 0.312 GiB. 
  Using in-core AOs.

  ==> MemDFJK: Density-Fitted J/K Matrices <==

    J tasked:                   Yes
    K tasked:                   Yes
    wK tasked:                   No
    OpenMP threads:               1
    Memory [MiB]:               319
    Algorithm:                 Core
    Schwarz Cutoff:           1E-12
    Mask sparsity (%):       0.0000
    Fitting Condition:        1E-10

   => Auxiliary Basis Set <=

  Basis Set: (CC-PVTZ AUX)
    Blend: CC-PVTZ-JKFIT
    Number of shells: 35
    Number of basis functions: 109
    Number of Cartesian functions: 131
    Spherical Harmonics?: true
    Max angular momentum: 4

  Cached 100.0% of DFT collocation blocks in 0.054 [GiB].

  Minimum eigenvalue in the overlap matrix is 8.7288974104E-03.
  Reciprocal condition number of the overlap matrix is 2.3356000743E-03.
    Using symmetric orthogonalization.

  ==> Pre-Iterations <==

  SCF Guess: Orbitals guess was supplied from a previous computation.

   -------------------------------------------------------
    Irrep   Nso     Nmo     Nalpha   Nbeta   Ndocc  Nsocc
   -------------------------------------------------------
     A1        20      20       3       3       3       0
     A2         4       4       0       0       0       0
     B1        10      10       1       1       1       0
     B2        10      10       1       1       1       0
   -------------------------------------------------------
    Total      44      44       5       5       5       0
   -------------------------------------------------------

  ==> Iterations <==

                           Total Energy        Delta E     RMS |[F,P]|

   @DF-UKS iter   0:   -75.76662199208374   -7.57666e+01   1.19078e-03 
   @DF-UKS iter   1:   -75.77133815462231   -4.71616e-03   4.08298e-04 DIIS/ADIIS
   @DF-UKS iter   2:   -75.77133579015192    2.36447e-06   4.33909e-04 DIIS/ADIIS/DAMP=1%
   @DF-UKS iter   3:   -75.77169065124718   -3.54861e-04   1.81477e-04 DIIS/ADIIS/DAMP=1%
   @DF-UKS iter   4:   -75.77127993696531    4.10714e-04   6.27796e-06 DIIS/DAMP=1%
   @DF-UKS iter   5:   -75.77137949718325   -9.95602e-05   7.90020e-07 DIIS/DAMP=1%
   @DF-UKS iter   6:   -75.77138305726038   -3.56008e-06   3.63583e-08 DIIS/DAMP=1%
   @DF-UKS iter   7:   -75.77138346689730   -4.09637e-07   1.98711e-08 DIIS/DAMP=1%
   @DF-UKS iter   8:   -75.77138346095835    5.93896e-09   1.83060e-10 DIIS/DAMP=1%
  Energy and wave function converged.


  ==> Post-Iterations <==

   Electrons on quadrature grid:
      Nalpha   =    5.0000000536 ; deviation = 5.364e-08
      Nbeta    =    5.0000000536 ; deviation = 5.364e-08
      Ntotal   =   10.0000001073 ; deviation = 1.073e-07 

   @Spin Contamination Metric:  -1.776356839E-15
   @S^2 Expected:                0.000000000E+00
   @S^2 Observed:               -1.776356839E-15
   @S   Expected:                0.000000000E+00
   @S   Observed:                0.000000000E+00

    Orbital Energies [Eh]
    ---------------------

    Alpha Occupied:                                                       

       1A1   -18.705073     2A1    -0.495289     3A1    -0.023137  
       1B2     0.107337     1B1     0.107337  

    Alpha Virtual:                                                        

       4A1     0.294076     5A1     0.617011     6A1     0.876580  
       2B1     0.914188     2B2     0.914188     3B2     1.027556  
       3B1     1.027556     7A1     1.293467     8A1     1.441729  
       1A2     1.878285     9A1     1.878285     4B1     2.073689  
       4B2     2.073689    10A1     2.439406    11A1     2.676989  
      12A1     3.531238     2A2     3.531239     5B2     3.678324  
       5B1     3.678324    13A1     3.824790     6B2     4.022360  
       6B1     4.022360     7B1     4.273035     7B2     4.273035  
      14A1     4.309341    15A1     5.211706     8B2     5.575558  
       8B1     5.575558     3A2     5.654945    16A1     5.654945  
       9B1     6.252792     9B2     6.252792    17A1     6.531355  
      18A1     6.651973     4A2     6.651974    10B1     6.923535  
      10B2     6.923535    19A1     7.274551    20A1     9.091431  

    Beta Occupied:                                                        

       1A1   -18.705073     2A1    -0.495289     3A1    -0.023137  
       1B2     0.107337     1B1     0.107337  

    Beta Virtual:                                                         

       4A1     0.294076     5A1     0.617011     6A1     0.876580  
       2B1     0.914188     2B2     0.914188     3B2     1.027556  
       3B1     1.027556     7A1     1.293467     8A1     1.441729  
       1A2     1.878285     9A1     1.878285     4B1     2.073689  
       4B2     2.073689    10A1     2.439406    11A1     2.676989  
      12A1     3.531238     2A2     3.531239     5B2     3.678324  
       5B1     3.678324    13A1     3.824790     6B2     4.022360  
       6B1     4.022360     7B1     4.273035     7B2     4.273035  
      14A1     4.309341    15A1     5.211706     8B2     5.575558  
       8B1     5.575558     3A2     5.654945    16A1     5.654945  
       9B1     6.252792     9B2     6.252792    17A1     6.531355  
      18A1     6.651973     4A2     6.651974    10B1     6.923535  
      10B2     6.923535    19A1     7.274551    20A1     9.091431  

    Final Occupation by Irrep:
             A1    A2    B1    B2 
    DOCC [     3,    0,    1,    1 ]
    SOCC [     0,    0,    0,    0 ]
    NA   [     3,    0,    1,    1 ]
    NB   [     3,    0,    1,    1 ]

  @DF-UKS Final Energy:   -75.77138346095835

   => Energetics <=

    Nuclear Repulsion Energy =              3.6484946685868276
    One-Electron Energy =                -115.5058388517853132
    Two-Electron Energy =                  43.4840086868155993
    DFT Exchange-Correlation Energy =      -7.3980479645754595
    Empirical Dispersion Energy =           0.0000000000000000
    VV10 Nonlocal Energy =                  0.0000000000000000
    Total Energy =                        -75.7713834609583472

  UHF NO Occupations:
  HONO-2 :    2 A1 2.0000000
  HONO-1 :    1 B1 2.0000000
  HONO-0 :    3 A1 2.0000000
  LUNO+0 :    4 A1 0.0000000
  LUNO+1 :    5 A1 0.0000000
  LUNO+2 :    6 A1 0.0000000
  LUNO+3 :    7 A1 0.0000000


Computation Completed


Properties will be evaluated at   0.000000,   0.000000,   0.000000 [a0]

Properties computed using the SCF density matrix


 Multipole Moments:

 ------------------------------------------------------------------------------------
     Multipole            Electronic (a.u.)      Nuclear  (a.u.)        Total (a.u.)
 ------------------------------------------------------------------------------------

 L = 1.  Multiply by 2.5417464519 to convert [e a0] to [Debye]
 Dipole X            :          0.0000000            0.0000000            0.0000000
 Dipole Y            :          0.0000000            0.0000000            0.0000000
 Dipole Z            :         -0.8100336            1.0229568            0.2129232
 Magnitude           :                                                    0.2129232

 ------------------------------------------------------------------------------------

*** tstop() called on Mac.lan at Sun Aug 10 17:38:13 2025
Module time:
	user time   =       7.72 seconds =       0.13 minutes
	system time =       2.18 seconds =       0.04 minutes
	total time  =          1 seconds =       0.02 minutes
Total time:
	user time   =       7.72 seconds =       0.13 minutes
	system time =       2.18 seconds =       0.04 minutes
	total time  =          1 seconds =       0.02 minutes

*** tstart() called on Mac.lan
*** at Sun Aug 10 17:38:13 2025

   => Libint2 <=

    Primary   basis highest AM E, G, H:  6, 6, 3
    Auxiliary basis highest AM E, G, H:  7, 7, 4
    Onebody   basis highest AM E, G, H:  -, -, -
    Solid Harmonics ordering:            Gaussian
   => Loading Basis Set <=

    Name: CC-PVTZ
    Role: ORBITAL
    Keyword: BASIS
    atoms 1 entry O          line   262 file /Users/joseantoniorodriguesromero/anaconda3/share/psi4/basis/cc-pvtz.gbs 
    atoms 2 entry H          line    23 file /Users/joseantoniorodriguesromero/anaconda3/share/psi4/basis/cc-pvtz.gbs 


         ---------------------------------------------------------
                                   SCF
               by Justin Turney, Rob Parrish, Andy Simmonett
                          and Daniel G. A. Smith
                              UKS Reference
                        1 Threads,    500 MiB Core
         ---------------------------------------------------------

  ==> Geometry <==

    Molecular point group: c2v
    Full point group: C_inf_v

    Geometry (in Angstrom), charge = -1, multiplicity = 1:

       Center              X                  Y                   Z               Mass       
    ------------   -----------------  -----------------  -----------------  -----------------
         O            0.000000000000     0.000000000000    -0.068777065198    15.994914619570
         H            0.000000000000     0.000000000000     1.091541934802     1.007825032230

  Running in c2v symmetry.

  Rotational constants: A = ************  B =     13.20668  C =     13.20668 [cm^-1]
  Rotational constants: A = ************  B = 395926.18877  C = 395926.18877 [MHz]
  Nuclear repulsion =    3.648494668586828

  Charge       = -1
  Multiplicity = 1
  Electrons    = 10
  Nalpha       = 5
  Nbeta        = 5

  ==> Algorithm <==

  SCF Algorithm Type is DF.
  DIIS enabled.
  MOM disabled.
  Fractional occupation disabled.
  Guess Type is READ.
  Energy threshold   = 1.00e-08
  Density threshold  = 1.00e-08
  Integral threshold = 1.00e-12

  ==> Primary Basis <==

  Basis Set: CC-PVTZ
    Blend: CC-PVTZ
    Number of shells: 16
    Number of basis functions: 44
    Number of Cartesian functions: 50
    Spherical Harmonics?: true
    Max angular momentum: 3

  ==> DFT Potential <==

   => LibXC <=

    Version 6.2.2
    S. Lehtola, C. Steigemann, M. J.T. Oliveira, and M. A.L. Marques.,  SoftwareX 7, 1–5 (2018) (10.1016/j.softx.2017.11.002)

   => Composite Functional: B3LYP <= 

    B3LYP Hyb-GGA Exchange-Correlation Functional

    P. J. Stephens, F. J. Devlin, C. F. Chabalowski, and M. J. Frisch.,  J. Phys. Chem. 98, 11623 (1994) (10.1021/j100096a001)

    Deriv               =              1
    GGA                 =           TRUE
    Meta                =          FALSE

    Exchange Hybrid     =           TRUE
    MP2 Hybrid          =          FALSE

   => Exchange Functionals <=

    0.0800   Slater exchange
    0.7200         Becke 88

   => Exact (HF) Exchange <=

    0.2000               HF 

   => Correlation Functionals <=

    0.1900   Vosko, Wilk & Nusair (VWN5_RPA)
    0.8100   Lee, Yang & Parr

   => LibXC Density Thresholds  <==

    XC_HYB_GGA_XC_B3LYP:  1.00E-15 

   => Molecular Quadrature <=

    Radial Scheme          =       TREUTLER
    Pruning Scheme         =           NONE
    Nuclear Scheme         =       TREUTLER

    Blocking Scheme        =         OCTREE
    BS radius alpha        =              1
    Pruning alpha          =              1
    Radial Points          =             75
    Spherical Points       =            302
    Total Points           =          44160
    Total Blocks           =            391
    Max Points             =            256
    Max Functions          =             44
    Weights Tolerance      =       1.00E-15

   => Loading Basis Set <=

    Name: (CC-PVTZ AUX)
    Role: JKFIT
    Keyword: DF_BASIS_SCF
    atoms 1 entry O          line   229 file /Users/joseantoniorodriguesromero/anaconda3/share/psi4/basis/cc-pvtz-jkfit.gbs 
    atoms 2 entry H          line    51 file /Users/joseantoniorodriguesromero/anaconda3/share/psi4/basis/cc-pvtz-jkfit.gbs 

   => Loading Basis Set <=

    Name: CC-PVTZ
    Role: ORBITAL
    Keyword: BASIS
    atoms 1 entry O          line   262 file /Users/joseantoniorodriguesromero/anaconda3/share/psi4/basis/cc-pvtz.gbs 
    atoms 2 entry H          line    23 file /Users/joseantoniorodriguesromero/anaconda3/share/psi4/basis/cc-pvtz.gbs 

  Reading orbitals from file /tmp/scan_HO_37.default.49193.180.npy, no projection.

  ==> Integral Setup <==

  DFHelper Memory: AOs need 0.002 GiB; user supplied 0.312 GiB. 
  Using in-core AOs.

  ==> MemDFJK: Density-Fitted J/K Matrices <==

    J tasked:                   Yes
    K tasked:                   Yes
    wK tasked:                   No
    OpenMP threads:               1
    Memory [MiB]:               319
    Algorithm:                 Core
    Schwarz Cutoff:           1E-12
    Mask sparsity (%):       0.0000
    Fitting Condition:        1E-10

   => Auxiliary Basis Set <=

  Basis Set: (CC-PVTZ AUX)
    Blend: CC-PVTZ-JKFIT
    Number of shells: 35
    Number of basis functions: 109
    Number of Cartesian functions: 131
    Spherical Harmonics?: true
    Max angular momentum: 4

  Cached 100.0% of DFT collocation blocks in 0.054 [GiB].

  Minimum eigenvalue in the overlap matrix is 8.7288974104E-03.
  Reciprocal condition number of the overlap matrix is 2.3356000743E-03.
    Using symmetric orthogonalization.

  ==> Pre-Iterations <==

  SCF Guess: Orbitals guess was supplied from a previous computation.

   -------------------------------------------------------
    Irrep   Nso     Nmo     Nalpha   Nbeta   Ndocc  Nsocc
   -------------------------------------------------------
     A1        20      20       3       3       3       0
     A2         4       4       0       0       0       0
     B1        10      10       1       1       1       0
     B2        10      10       1       1       1       0
   -------------------------------------------------------
    Total      44      44       5       5       5       0
   -------------------------------------------------------

  ==> Iterations <==

                           Total Energy        Delta E     RMS |[F,P]|

   @DF-UKS iter   0:   -75.77138347280054   -7.57714e+01   1.24281e-10 
   @DF-UKS iter   1:   -75.77138347280052    1.42109e-14   2.51033e-10 DIIS
  Energy and wave function converged.


  ==> Post-Iterations <==

   Electrons on quadrature grid:
      Nalpha   =    5.0000000536 ; deviation = 5.364e-08
      Nbeta    =    5.0000000536 ; deviation = 5.364e-08
      Ntotal   =   10.0000001073 ; deviation = 1.073e-07 

   @Spin Contamination Metric:  -1.776356839E-15
   @S^2 Expected:                0.000000000E+00
   @S^2 Observed:               -1.776356839E-15
   @S   Expected:                0.000000000E+00
   @S   Observed:                0.000000000E+00

    Orbital Energies [Eh]
    ---------------------

    Alpha Occupied:                                                       

       1A1   -18.705073     2A1    -0.495289     3A1    -0.023137  
       1B2     0.107337     1B1     0.107337  

    Alpha Virtual:                                                        

       4A1     0.294076     5A1     0.617011     6A1     0.876580  
       2B1     0.914188     2B2     0.914188     3B2     1.027556  
       3B1     1.027556     7A1     1.293467     8A1     1.441729  
       1A2     1.878285     9A1     1.878285     4B1     2.073689  
       4B2     2.073689    10A1     2.439406    11A1     2.676989  
      12A1     3.531238     2A2     3.531239     5B2     3.678324  
       5B1     3.678324    13A1     3.824790     6B2     4.022360  
       6B1     4.022360     7B1     4.273035     7B2     4.273035  
      14A1     4.309341    15A1     5.211706     8B2     5.575558  
       8B1     5.575558     3A2     5.654945    16A1     5.654945  
       9B1     6.252792     9B2     6.252792    17A1     6.531355  
      18A1     6.651973     4A2     6.651974    10B1     6.923535  
      10B2     6.923535    19A1     7.274551    20A1     9.091431  

    Beta Occupied:                                                        

       1A1   -18.705073     2A1    -0.495289     3A1    -0.023137  
       1B2     0.107337     1B1     0.107337  

    Beta Virtual:                                                         

       4A1     0.294076     5A1     0.617011     6A1     0.876580  
       2B1     0.914188     2B2     0.914188     3B2     1.027556  
       3B1     1.027556     7A1     1.293467     8A1     1.441729  
       1A2     1.878285     9A1     1.878285     4B1     2.073689  
       4B2     2.073689    10A1     2.439406    11A1     2.676989  
      12A1     3.531238     2A2     3.531239     5B2     3.678324  
       5B1     3.678324    13A1     3.824790     6B2     4.022360  
       6B1     4.022360     7B1     4.273035     7B2     4.273035  
      14A1     4.309341    15A1     5.211706     8B2     5.575558  
       8B1     5.575558     3A2     5.654945    16A1     5.654945  
       9B1     6.252792     9B2     6.252792    17A1     6.531355  
      18A1     6.651973     4A2     6.651974    10B2     6.923535  
      10B1     6.923535    19A1     7.274551    20A1     9.091431  

    Final Occupation by Irrep:
             A1    A2    B1    B2 
    DOCC [     3,    0,    1,    1 ]
    SOCC [     0,    0,    0,    0 ]
    NA   [     3,    0,    1,    1 ]
    NB   [     3,    0,    1,    1 ]

  @DF-UKS Final Energy:   -75.77138347280052

   => Energetics <=

    Nuclear Repulsion Energy =              3.6484946685868276
    One-Electron Energy =                -115.5058388998091630
    Two-Electron Energy =                  43.4840087282090266
    DFT Exchange-Correlation Energy =      -7.3980479697872177
    Empirical Dispersion Energy =           0.0000000000000000
    VV10 Nonlocal Energy =                  0.0000000000000000
    Total Energy =                        -75.7713834728005367

  UHF NO Occupations:
  HONO-2 :    2 A1 2.0000000
  HONO-1 :    1 B1 2.0000000
  HONO-0 :    3 A1 2.0000000
  LUNO+0 :    4 A1 0.0000000
  LUNO+1 :    5 A1 0.0000000
  LUNO+2 :    6 A1 0.0000000
  LUNO+3 :    7 A1 0.0000000


Computation Completed


Properties will be evaluated at   0.000000,   0.000000,   0.000000 [a0]

Properties computed using the B3LYP density matrix


 Multipole Moments:

 ------------------------------------------------------------------------------------
     Multipole            Electronic (a.u.)      Nuclear  (a.u.)        Total (a.u.)
 ------------------------------------------------------------------------------------

 L = 1.  Multiply by 2.5417464519 to convert [e a0] to [Debye]
 Dipole X            :          0.0000000            0.0000000            0.0000000
 Dipole Y            :          0.0000000            0.0000000            0.0000000
 Dipole Z            :         -0.8100336            1.0229568            0.2129232
 Magnitude           :                                                    0.2129232

 L = 2.  Multiply by 1.3450342976 to convert [e a0^2] to [Debye ang]
 Quadrupole XX       :         -6.5088276            0.0000000           -6.5088276
 Quadrupole XY       :          0.0000000            0.0000000            0.0000000
 Quadrupole XZ       :          0.0000000            0.0000000            0.0000000
 Quadrupole YY       :         -6.5088276            0.0000000           -6.5088276
 Quadrupole YZ       :          0.0000000            0.0000000            0.0000000
 Quadrupole ZZ       :         -9.9497990            4.3899317           -5.5598673
 Traceless XX        :          1.1469905           -1.4633106           -0.3163201
 Traceless YY        :          1.1469905           -1.4633106           -0.3163201
 Traceless ZZ        :         -2.2939809            2.9266211            0.6326402

 ------------------------------------------------------------------------------------
  ==> Computing MBIS Charges <==

  Electron Count from Grid (Expected Number): 10.00000 (10.00000)
  Difference:  0.00000

  MBIS Charges: (a.u.)
   Center  Symbol  Z      Pop.       Charge
      1       O    8    9.079970   -1.079970
      2       H    1    0.920030    0.079970

  MBIS Dipoles: [e a0]
   Center  Symbol  Z        X           Y           Z
      1       O    8   -0.000000   -0.000000   -0.107298
      2       H    1    0.000000   -0.000000    0.014902

  MBIS Quadrupoles: [e a0^2]
   Center  Symbol  Z      XX        XY        XZ        YY        YZ        ZZ
      1       O    8   -5.6571   -0.0000    0.0000   -5.6571   -0.0000   -5.1358
      2       H    1   -0.8517   -0.0000    0.0000   -0.8517    0.0000   -0.8355

  MBIS Octupoles: [e a0^3]
   Center  Symbol  Z      XXX       XXY       XXZ       XYY       XYZ       XZZ       YYY       YYZ       YZZ       ZZZ
      1       O    8   -0.0000   -0.0000   -0.1923    0.0000   -0.0000    0.0000   -0.0000   -0.1923   -0.0000   -0.9491
      2       H    1    0.0000   -0.0000    0.0004    0.0000    0.0000    0.0000   -0.0000    0.0004   -0.0000   -0.0074

  MBIS Radial Moments:
   Center  Symbol  Z      [a0^2]      [a0^3]      [a0^4]      
      1       O    8   16.449981   34.755768   87.091552
      2       H    1    2.538923    6.069358   17.164190

  MBIS Valence Widths: [a0]
   Center  Symbol  Z     Width
      1       O    8    0.431750
      2       H    1    0.478158

*** tstop() called on Mac.lan at Sun Aug 10 17:38:14 2025
Module time:
	user time   =       3.27 seconds =       0.05 minutes
	system time =       1.40 seconds =       0.02 minutes
	total time  =          1 seconds =       0.02 minutes
Total time:
	user time   =      11.08 seconds =       0.18 minutes
	system time =       3.66 seconds =       0.06 minutes
	total time  =          2 seconds =       0.03 minutes

    Psi4 stopped on: Sunday, 10 August 2025 05:38PM
    Psi4 wall time for execution: 0:00:01.44

*** Psi4 exiting successfully. Buy a developer a beer!
