
    -----------------------------------------------------------------------
          Psi4: An Open-Source Ab Initio Electronic Structure Package
                               Psi4 1.9.1 release

                         Git: Rev {} zzzzzzz 


    D. G. A. Smith, L. A. Burns, A. C. Simmonett, R. M. Parrish,
    M. C. Schieber, R. Galvelis, P. Kraus, H. Kruse, R. Di Remigio,
    A. Alenaizan, A. M. James, S. Lehtola, J. P. Misiewicz, M. Scheurer,
    R. A. Shaw, J. B. Schriber, Y. Xie, Z. L. Glick, D. A. Sirianni,
    J. S. O'Brien, J. M. Waldrop, A. Kumar, E. G. Hohenstein,
    B. P. Pritchard, B. R. Brooks, H. F. Schaefer III, A. Yu. Sokolov,
    K. Patkowski, A. E. DePrince III, U. Bozkaya, R. A. King,
    F. A. Evangelista, J. M. Turney, T. D. Crawford, C. D. Sherrill,
    J. Chem. Phys. 152(18) 184108 (2020). https://doi.org/10.1063/5.0006002

                            Additional Code Authors
    E. T. Seidl, C. L. Janssen, E. F. Valeev, M. L. Leininger,
    J. F. Gonthier, R. M. Richard, H. R. McAlexander, M. Saitow, X. Wang,
    P. Verma, M. H. Lechner, A. Jiang, S. Behnle, A. G. Heide,
    M. F. Herbst, and D. L. Poole

             Previous Authors, Complete List of Code Contributors,
                       and Citations for Specific Modules
    https://github.com/psi4/psi4/blob/master/codemeta.json
    https://github.com/psi4/psi4/graphs/contributors
    http://psicode.org/psi4manual/master/introduction.html#citing-psifour

    -----------------------------------------------------------------------


    Psi4 started on: Sunday, 10 August 2025 05:28PM

    Process ID: 48878
    Host:       Mac.lan
    PSIDATADIR: /Users/joseantoniorodriguesromero/anaconda3/share/psi4
    Memory:     500.0 MiB
    Threads:    1
    
  ==> Input File <==

--------------------------------------------------------------------------
molecule { 
-1 2
O           0.000000           0.000000           0.000000
O           0.000000           0.000000           1.774638
}

set { 
basis              cc-pvtz
reference          uks
maxiter            500
DAMPING_PERCENTAGE 1
E_CONVERGENCE      1.0E-8
D_CONVERGENCE      1.0E-8
DIIS_MAX_VECS      400
MBIS_MAXITER       8000
guess              read
}

E, wfn = energy('b3lyp', restart_file='last_wfn', return_wfn=True)
properties('b3lyp','MBIS_CHARGES', wfn=wfn)
wfn.to_file('last_wfn')
--------------------------------------------------------------------------

Scratch directory: /tmp/
 Found user provided orbital data. Setting orbital guess to READ 
 Copying restart file <last_wfn.npy> to </tmp/scan_OO_42.default.48878.180.npy> for internal processing
   => Libint2 <=

    Primary   basis highest AM E, G, H:  6, 6, 3
    Auxiliary basis highest AM E, G, H:  7, 7, 4
    Onebody   basis highest AM E, G, H:  -, -, -
    Solid Harmonics ordering:            Gaussian

*** tstart() called on Mac.lan
*** at Sun Aug 10 17:28:49 2025

   => Loading Basis Set <=

    Name: CC-PVTZ
    Role: ORBITAL
    Keyword: BASIS
    atoms 1-2 entry O          line   262 file /Users/joseantoniorodriguesromero/anaconda3/share/psi4/basis/cc-pvtz.gbs 


         ---------------------------------------------------------
                                   SCF
               by Justin Turney, Rob Parrish, Andy Simmonett
                          and Daniel G. A. Smith
                              UKS Reference
                        1 Threads,    500 MiB Core
         ---------------------------------------------------------

  ==> Geometry <==

    Molecular point group: d2h
    Full point group: D_inf_h

    Geometry (in Angstrom), charge = -1, multiplicity = 2:

       Center              X                  Y                   Z               Mass       
    ------------   -----------------  -----------------  -----------------  -----------------
         O            0.000000000000     0.000000000000    -0.887319000000    15.994914619570
         O            0.000000000000     0.000000000000     0.887319000000    15.994914619570

  Running in d2h symmetry.

  Rotational constants: A = ************  B =      0.66931  C =      0.66931 [cm^-1]
  Rotational constants: A = ************  B =  20065.30268  C =  20065.30268 [MHz]
  Nuclear repulsion =   19.084084462791854

  Charge       = -1
  Multiplicity = 2
  Electrons    = 17
  Nalpha       = 9
  Nbeta        = 8

  ==> Algorithm <==

  SCF Algorithm Type is DF.
  DIIS enabled.
  MOM disabled.
  Fractional occupation disabled.
  Guess Type is READ.
  Energy threshold   = 1.00e-08
  Density threshold  = 1.00e-08
  Integral threshold = 1.00e-12

  ==> Primary Basis <==

  Basis Set: CC-PVTZ
    Blend: CC-PVTZ
    Number of shells: 20
    Number of basis functions: 60
    Number of Cartesian functions: 70
    Spherical Harmonics?: true
    Max angular momentum: 3

  ==> DFT Potential <==

   => LibXC <=

    Version 6.2.2
    S. Lehtola, C. Steigemann, M. J.T. Oliveira, and M. A.L. Marques.,  SoftwareX 7, 1–5 (2018) (10.1016/j.softx.2017.11.002)

   => Composite Functional: B3LYP <= 

    B3LYP Hyb-GGA Exchange-Correlation Functional

    P. J. Stephens, F. J. Devlin, C. F. Chabalowski, and M. J. Frisch.,  J. Phys. Chem. 98, 11623 (1994) (10.1021/j100096a001)

    Deriv               =              1
    GGA                 =           TRUE
    Meta                =          FALSE

    Exchange Hybrid     =           TRUE
    MP2 Hybrid          =          FALSE

   => Exchange Functionals <=

    0.0800   Slater exchange
    0.7200         Becke 88

   => Exact (HF) Exchange <=

    0.2000               HF 

   => Correlation Functionals <=

    0.1900   Vosko, Wilk & Nusair (VWN5_RPA)
    0.8100   Lee, Yang & Parr

   => LibXC Density Thresholds  <==

    XC_HYB_GGA_XC_B3LYP:  1.00E-15 

   => Molecular Quadrature <=

    Radial Scheme          =       TREUTLER
    Pruning Scheme         =           NONE
    Nuclear Scheme         =       TREUTLER

    Blocking Scheme        =         OCTREE
    BS radius alpha        =              1
    Pruning alpha          =              1
    Radial Points          =             75
    Spherical Points       =            302
    Total Points           =          42506
    Total Blocks           =            380
    Max Points             =            255
    Max Functions          =             60
    Weights Tolerance      =       1.00E-15

   => Loading Basis Set <=

    Name: (CC-PVTZ AUX)
    Role: JKFIT
    Keyword: DF_BASIS_SCF
    atoms 1-2 entry O          line   229 file /Users/joseantoniorodriguesromero/anaconda3/share/psi4/basis/cc-pvtz-jkfit.gbs 

   => Loading Basis Set <=

    Name: CC-PVTZ
    Role: ORBITAL
    Keyword: BASIS
    atoms 1-2 entry O          line   262 file /Users/joseantoniorodriguesromero/anaconda3/share/psi4/basis/cc-pvtz.gbs 

  Reading orbitals from file /tmp/scan_OO_42.default.48878.180.npy, no projection.

  ==> Integral Setup <==

  DFHelper Memory: AOs need 0.005 GiB; user supplied 0.297 GiB. 
  Using in-core AOs.

  ==> MemDFJK: Density-Fitted J/K Matrices <==

    J tasked:                   Yes
    K tasked:                   Yes
    wK tasked:                   No
    OpenMP threads:               1
    Memory [MiB]:               304
    Algorithm:                 Core
    Schwarz Cutoff:           1E-12
    Mask sparsity (%):       0.0000
    Fitting Condition:        1E-10

   => Auxiliary Basis Set <=

  Basis Set: (CC-PVTZ AUX)
    Blend: CC-PVTZ-JKFIT
    Number of shells: 50
    Number of basis functions: 158
    Number of Cartesian functions: 192
    Spherical Harmonics?: true
    Max angular momentum: 4

  Cached 100.0% of DFT collocation blocks in 0.069 [GiB].

  Minimum eigenvalue in the overlap matrix is 2.3495810855E-02.
  Reciprocal condition number of the overlap matrix is 8.5659742984E-03.
    Using symmetric orthogonalization.

  ==> Pre-Iterations <==

  SCF Guess: Orbitals guess was supplied from a previous computation.

   -------------------------------------------------------
    Irrep   Nso     Nmo     Nalpha   Nbeta   Ndocc  Nsocc
   -------------------------------------------------------
     Ag        13      13       3       3       3       0
     B1g        3       3       0       0       0       0
     B2g        7       7       1       1       1       0
     B3g        7       7       1       0       0       1
     Au         3       3       0       0       0       0
     B1u       13      13       2       2       2       0
     B2u        7       7       1       1       1       0
     B3u        7       7       1       1       1       0
   -------------------------------------------------------
    Total      60      60       9       8       8       1
   -------------------------------------------------------

  ==> Iterations <==

                           Total Energy        Delta E     RMS |[F,P]|

   @DF-UKS iter   0:  -150.30949155819275   -1.50309e+02   1.44984e-03 
   @DF-UKS iter   1:  -150.31447444675268   -4.98289e-03   5.86448e-04 DIIS/ADIIS
   @DF-UKS iter   2:  -150.31450642437954   -3.19776e-05   4.23864e-04 DIIS/ADIIS/DAMP=1%
   @DF-UKS iter   3:  -150.31428018169890    2.26243e-04   6.86252e-05 DIIS/DAMP=1%
   @DF-UKS iter   4:  -150.31458908763940   -3.08906e-04   4.40085e-06 DIIS/DAMP=1%
   @DF-UKS iter   5:  -150.31453783434915    5.12533e-05   6.50014e-07 DIIS/DAMP=1%
   @DF-UKS iter   6:  -150.31454171462383   -3.88027e-06   6.37324e-08 DIIS/DAMP=1%
   @DF-UKS iter   7:  -150.31454122678517    4.87839e-07   1.02962e-08 DIIS/DAMP=1%
   @DF-UKS iter   8:  -150.31454125166596   -2.48808e-08   6.12071e-10 DIIS/DAMP=1%
   @DF-UKS iter   9:  -150.31454125010657    1.55939e-09   5.90406e-11 DIIS/DAMP=1%
  Energy and wave function converged.


  ==> Post-Iterations <==

   Electrons on quadrature grid:
      Nalpha   =    8.9999998687 ; deviation = -1.313e-07
      Nbeta    =    7.9999999008 ; deviation = -9.921e-08
      Ntotal   =   16.9999997695 ; deviation = -2.305e-07 

   @Spin Contamination Metric:   5.191086615E-03
   @S^2 Expected:                7.500000000E-01
   @S^2 Observed:                7.551910866E-01
   @S   Expected:                5.000000000E-01
   @S   Observed:                5.000000000E-01

    Orbital Energies [Eh]
    ---------------------

    Alpha Occupied:                                                       

       1Ag   -18.876860     1B1u  -18.876836     2Ag    -0.657966  
       2B1u   -0.548816     1B2u   -0.081350     3Ag    -0.080579  
       1B3u   -0.043311     1B3g   -0.013943     1B2g    0.027343  

    Alpha Virtual:                                                        

       3B1u    0.197107     4B1u    0.793285     2B2u    0.814408  
       2B3u    0.837289     2B3g    0.907338     4Ag     0.907653  
       2B2g    0.927538     5Ag     1.052518     5B1u    1.402965  
       3B2u    1.562051     3B3u    1.582953     6Ag     1.708966  
       1B1g    1.714772     7Ag     1.738146     1Au     1.822605  
       6B1u    1.822893     3B3g    2.096600     3B2g    2.120878  
       7B1u    2.614092     8Ag     3.783342     4B2u    3.828629  
       4B3u    3.863431     4B3g    3.900398     4B2g    3.935826  
       8B1u    4.131154     5B2u    5.222872     9Ag     5.227128  
       5B3u    5.250982     2B1g    5.370296    10Ag     5.372839  
       6B2u    5.423641     6B3u    5.423732     5B3g    5.429732  
       5B2g    5.429807     9B1u    5.459101     2Au     5.459582  
       6B3g    5.593580     6B2g    5.621404    10B1u    5.805605  
       7B2u    6.370693     7B3u    6.404356    11Ag     6.429576  
       3B1g    6.431260    11B1u    6.509378     3Au     6.509441  
      12Ag     6.575389     7B3g    6.775832     7B2g    6.808880  
      12B1u    7.308656    13Ag     7.463196    13B1u    8.253304  

    Beta Occupied:                                                        

       1Ag   -18.862981     1B1u  -18.862940     2Ag    -0.622206  
       2B1u   -0.506175     3Ag    -0.067960     1B3u   -0.031314  
       1B2u    0.011661     1B2g    0.041405  

    Beta Virtual:                                                         

       1B3g    0.144284     3B1u    0.213531     4B1u    0.800734  
       2B3u    0.843175     2B2u    0.855524     4Ag     0.916580  
       2B2g    0.932977     2B3g    0.944357     5Ag     1.063231  
       5B1u    1.418622     3B2u    1.584068     3B3u    1.584630  
       6Ag     1.738894     1B1g    1.739058     7Ag     1.745412  
       1Au     1.849761     6B1u    1.851137     3B2g    2.124240  
       3B3g    2.126433     7B1u    2.626792     8Ag     3.792538  
       4B3u    3.874125     4B2u    3.889753     4B2g    3.946839  
       4B3g    3.962431     8B1u    4.144587     9Ag     5.246574  
       5B2u    5.255336     5B3u    5.255470     2B1g    5.393950  
      10Ag     5.395314     6B3u    5.458482     6B2u    5.458754  
       5B2g    5.465565     5B3g    5.465842     2Au     5.483615  
       9B1u    5.484999     6B2g    5.625285     6B3g    5.626102  
      10B1u    5.820657     7B3u    6.411677     7B2u    6.424191  
       3B1g    6.481356    11Ag     6.484625     3Au     6.559214  
      11B1u    6.562604    12Ag     6.589061     7B2g    6.815530  
       7B3g    6.826723    12B1u    7.320091    13Ag     7.492498  
      13B1u    8.282250  

    Final Occupation by Irrep:
             Ag   B1g   B2g   B3g    Au   B1u   B2u   B3u 
    DOCC [     3,    0,    1,    0,    0,    2,    1,    1 ]
    SOCC [     0,    0,    0,    1,    0,    0,    0,    0 ]
    NA   [     3,    0,    1,    1,    0,    2,    1,    1 ]
    NB   [     3,    0,    1,    0,    0,    2,    1,    1 ]

  @DF-UKS Final Energy:  -150.31454125010657

   => Energetics <=

    Nuclear Repulsion Energy =             19.0840844627918536
    One-Electron Energy =                -250.7540800015214586
    Two-Electron Energy =                  95.2507432400513210
    DFT Exchange-Correlation Energy =     -13.8952889514282827
    Empirical Dispersion Energy =           0.0000000000000000
    VV10 Nonlocal Energy =                  0.0000000000000000
    Total Energy =                       -150.3145412501065721

  UHF NO Occupations:
  HONO-2 :    2B1u 1.9997931
  HONO-1 :    1B2u 1.9978981
  HONO-0 :    1B3g 1.0000000
  LUNO+0 :    2B2u 0.0021019
  LUNO+1 :    3B1u 0.0002069
  LUNO+2 :    4 Ag 0.0001575
  LUNO+3 :    2B3u 0.0000558


Computation Completed


Properties will be evaluated at   0.000000,   0.000000,   0.000000 [a0]

Properties computed using the SCF density matrix


 Multipole Moments:

 ------------------------------------------------------------------------------------
     Multipole            Electronic (a.u.)      Nuclear  (a.u.)        Total (a.u.)
 ------------------------------------------------------------------------------------

 L = 1.  Multiply by 2.5417464519 to convert [e a0] to [Debye]
 Dipole X            :          0.0000000            0.0000000            0.0000000
 Dipole Y            :          0.0000000            0.0000000            0.0000000
 Dipole Z            :          0.0000000            0.0000000            0.0000000
 Magnitude           :                                                    0.0000000

 ------------------------------------------------------------------------------------

*** tstop() called on Mac.lan at Sun Aug 10 17:28:50 2025
Module time:
	user time   =      11.67 seconds =       0.19 minutes
	system time =       2.33 seconds =       0.04 minutes
	total time  =          1 seconds =       0.02 minutes
Total time:
	user time   =      11.67 seconds =       0.19 minutes
	system time =       2.33 seconds =       0.04 minutes
	total time  =          1 seconds =       0.02 minutes

*** tstart() called on Mac.lan
*** at Sun Aug 10 17:28:50 2025

   => Libint2 <=

    Primary   basis highest AM E, G, H:  6, 6, 3
    Auxiliary basis highest AM E, G, H:  7, 7, 4
    Onebody   basis highest AM E, G, H:  -, -, -
    Solid Harmonics ordering:            Gaussian
   => Loading Basis Set <=

    Name: CC-PVTZ
    Role: ORBITAL
    Keyword: BASIS
    atoms 1-2 entry O          line   262 file /Users/joseantoniorodriguesromero/anaconda3/share/psi4/basis/cc-pvtz.gbs 


         ---------------------------------------------------------
                                   SCF
               by Justin Turney, Rob Parrish, Andy Simmonett
                          and Daniel G. A. Smith
                              UKS Reference
                        1 Threads,    500 MiB Core
         ---------------------------------------------------------

  ==> Geometry <==

    Molecular point group: d2h
    Full point group: D_inf_h

    Geometry (in Angstrom), charge = -1, multiplicity = 2:

       Center              X                  Y                   Z               Mass       
    ------------   -----------------  -----------------  -----------------  -----------------
         O            0.000000000000     0.000000000000    -0.887319000000    15.994914619570
         O            0.000000000000     0.000000000000     0.887319000000    15.994914619570

  Running in d2h symmetry.

  Rotational constants: A = ************  B =      0.66931  C =      0.66931 [cm^-1]
  Rotational constants: A = ************  B =  20065.30268  C =  20065.30268 [MHz]
  Nuclear repulsion =   19.084084462791854

  Charge       = -1
  Multiplicity = 2
  Electrons    = 17
  Nalpha       = 9
  Nbeta        = 8

  ==> Algorithm <==

  SCF Algorithm Type is DF.
  DIIS enabled.
  MOM disabled.
  Fractional occupation disabled.
  Guess Type is READ.
  Energy threshold   = 1.00e-08
  Density threshold  = 1.00e-08
  Integral threshold = 1.00e-12

  ==> Primary Basis <==

  Basis Set: CC-PVTZ
    Blend: CC-PVTZ
    Number of shells: 20
    Number of basis functions: 60
    Number of Cartesian functions: 70
    Spherical Harmonics?: true
    Max angular momentum: 3

  ==> DFT Potential <==

   => LibXC <=

    Version 6.2.2
    S. Lehtola, C. Steigemann, M. J.T. Oliveira, and M. A.L. Marques.,  SoftwareX 7, 1–5 (2018) (10.1016/j.softx.2017.11.002)

   => Composite Functional: B3LYP <= 

    B3LYP Hyb-GGA Exchange-Correlation Functional

    P. J. Stephens, F. J. Devlin, C. F. Chabalowski, and M. J. Frisch.,  J. Phys. Chem. 98, 11623 (1994) (10.1021/j100096a001)

    Deriv               =              1
    GGA                 =           TRUE
    Meta                =          FALSE

    Exchange Hybrid     =           TRUE
    MP2 Hybrid          =          FALSE

   => Exchange Functionals <=

    0.0800   Slater exchange
    0.7200         Becke 88

   => Exact (HF) Exchange <=

    0.2000               HF 

   => Correlation Functionals <=

    0.1900   Vosko, Wilk & Nusair (VWN5_RPA)
    0.8100   Lee, Yang & Parr

   => LibXC Density Thresholds  <==

    XC_HYB_GGA_XC_B3LYP:  1.00E-15 

   => Molecular Quadrature <=

    Radial Scheme          =       TREUTLER
    Pruning Scheme         =           NONE
    Nuclear Scheme         =       TREUTLER

    Blocking Scheme        =         OCTREE
    BS radius alpha        =              1
    Pruning alpha          =              1
    Radial Points          =             75
    Spherical Points       =            302
    Total Points           =          42506
    Total Blocks           =            380
    Max Points             =            255
    Max Functions          =             60
    Weights Tolerance      =       1.00E-15

   => Loading Basis Set <=

    Name: (CC-PVTZ AUX)
    Role: JKFIT
    Keyword: DF_BASIS_SCF
    atoms 1-2 entry O          line   229 file /Users/joseantoniorodriguesromero/anaconda3/share/psi4/basis/cc-pvtz-jkfit.gbs 

   => Loading Basis Set <=

    Name: CC-PVTZ
    Role: ORBITAL
    Keyword: BASIS
    atoms 1-2 entry O          line   262 file /Users/joseantoniorodriguesromero/anaconda3/share/psi4/basis/cc-pvtz.gbs 

  Reading orbitals from file /tmp/scan_OO_42.default.48878.180.npy, no projection.

  ==> Integral Setup <==

  DFHelper Memory: AOs need 0.005 GiB; user supplied 0.297 GiB. 
  Using in-core AOs.

  ==> MemDFJK: Density-Fitted J/K Matrices <==

    J tasked:                   Yes
    K tasked:                   Yes
    wK tasked:                   No
    OpenMP threads:               1
    Memory [MiB]:               304
    Algorithm:                 Core
    Schwarz Cutoff:           1E-12
    Mask sparsity (%):       0.0000
    Fitting Condition:        1E-10

   => Auxiliary Basis Set <=

  Basis Set: (CC-PVTZ AUX)
    Blend: CC-PVTZ-JKFIT
    Number of shells: 50
    Number of basis functions: 158
    Number of Cartesian functions: 192
    Spherical Harmonics?: true
    Max angular momentum: 4

  Cached 100.0% of DFT collocation blocks in 0.069 [GiB].

  Minimum eigenvalue in the overlap matrix is 2.3495810855E-02.
  Reciprocal condition number of the overlap matrix is 8.5659742984E-03.
    Using symmetric orthogonalization.

  ==> Pre-Iterations <==

  SCF Guess: Orbitals guess was supplied from a previous computation.

   -------------------------------------------------------
    Irrep   Nso     Nmo     Nalpha   Nbeta   Ndocc  Nsocc
   -------------------------------------------------------
     Ag        13      13       3       3       3       0
     B1g        3       3       0       0       0       0
     B2g        7       7       1       1       1       0
     B3g        7       7       1       0       0       1
     Au         3       3       0       0       0       0
     B1u       13      13       2       2       2       0
     B2u        7       7       1       1       1       0
     B3u        7       7       1       1       1       0
   -------------------------------------------------------
    Total      60      60       9       8       8       1
   -------------------------------------------------------

  ==> Iterations <==

                           Total Energy        Delta E     RMS |[F,P]|

   @DF-UKS iter   0:  -150.31454124978120   -1.50315e+02   5.16452e-12 
   @DF-UKS iter   1:  -150.31454124978117    2.84217e-14   4.59156e-12 DIIS
  Energy and wave function converged.


  ==> Post-Iterations <==

   Electrons on quadrature grid:
      Nalpha   =    8.9999998687 ; deviation = -1.313e-07
      Nbeta    =    7.9999999008 ; deviation = -9.921e-08
      Ntotal   =   16.9999997695 ; deviation = -2.305e-07 

   @Spin Contamination Metric:   5.191086609E-03
   @S^2 Expected:                7.500000000E-01
   @S^2 Observed:                7.551910866E-01
   @S   Expected:                5.000000000E-01
   @S   Observed:                5.000000000E-01

    Orbital Energies [Eh]
    ---------------------

    Alpha Occupied:                                                       

       1Ag   -18.876860     1B1u  -18.876836     2Ag    -0.657966  
       2B1u   -0.548816     1B2u   -0.081350     3Ag    -0.080579  
       1B3u   -0.043311     1B3g   -0.013943     1B2g    0.027343  

    Alpha Virtual:                                                        

       3B1u    0.197107     4B1u    0.793285     2B2u    0.814408  
       2B3u    0.837289     2B3g    0.907338     4Ag     0.907653  
       2B2g    0.927538     5Ag     1.052518     5B1u    1.402965  
       3B2u    1.562051     3B3u    1.582953     6Ag     1.708966  
       1B1g    1.714772     7Ag     1.738146     1Au     1.822605  
       6B1u    1.822893     3B3g    2.096600     3B2g    2.120878  
       7B1u    2.614092     8Ag     3.783342     4B2u    3.828629  
       4B3u    3.863431     4B3g    3.900398     4B2g    3.935826  
       8B1u    4.131154     5B2u    5.222872     9Ag     5.227128  
       5B3u    5.250982     2B1g    5.370296    10Ag     5.372839  
       6B2u    5.423641     6B3u    5.423732     5B3g    5.429732  
       5B2g    5.429807     9B1u    5.459101     2Au     5.459582  
       6B3g    5.593580     6B2g    5.621404    10B1u    5.805605  
       7B2u    6.370693     7B3u    6.404356    11Ag     6.429576  
       3B1g    6.431260    11B1u    6.509378     3Au     6.509441  
      12Ag     6.575389     7B3g    6.775832     7B2g    6.808880  
      12B1u    7.308656    13Ag     7.463196    13B1u    8.253304  

    Beta Occupied:                                                        

       1Ag   -18.862981     1B1u  -18.862940     2Ag    -0.622206  
       2B1u   -0.506175     3Ag    -0.067960     1B3u   -0.031314  
       1B2u    0.011661     1B2g    0.041405  

    Beta Virtual:                                                         

       1B3g    0.144284     3B1u    0.213531     4B1u    0.800734  
       2B3u    0.843175     2B2u    0.855524     4Ag     0.916580  
       2B2g    0.932977     2B3g    0.944357     5Ag     1.063231  
       5B1u    1.418622     3B2u    1.584068     3B3u    1.584630  
       6Ag     1.738894     1B1g    1.739058     7Ag     1.745412  
       1Au     1.849761     6B1u    1.851137     3B2g    2.124240  
       3B3g    2.126433     7B1u    2.626792     8Ag     3.792538  
       4B3u    3.874125     4B2u    3.889753     4B2g    3.946839  
       4B3g    3.962431     8B1u    4.144587     9Ag     5.246574  
       5B2u    5.255336     5B3u    5.255470     2B1g    5.393950  
      10Ag     5.395314     6B3u    5.458482     6B2u    5.458754  
       5B2g    5.465565     5B3g    5.465842     2Au     5.483615  
       9B1u    5.484999     6B2g    5.625285     6B3g    5.626102  
      10B1u    5.820657     7B3u    6.411677     7B2u    6.424191  
       3B1g    6.481356    11Ag     6.484625     3Au     6.559214  
      11B1u    6.562604    12Ag     6.589061     7B2g    6.815530  
       7B3g    6.826723    12B1u    7.320091    13Ag     7.492498  
      13B1u    8.282250  

    Final Occupation by Irrep:
             Ag   B1g   B2g   B3g    Au   B1u   B2u   B3u 
    DOCC [     3,    0,    1,    0,    0,    2,    1,    1 ]
    SOCC [     0,    0,    0,    1,    0,    0,    0,    0 ]
    NA   [     3,    0,    1,    1,    0,    2,    1,    1 ]
    NB   [     3,    0,    1,    0,    0,    2,    1,    1 ]

  @DF-UKS Final Energy:  -150.31454124978117

   => Energetics <=

    Nuclear Repulsion Energy =             19.0840844627918536
    One-Electron Energy =                -250.7540800073475964
    Two-Electron Energy =                  95.2507432468856052
    DFT Exchange-Correlation Energy =     -13.8952889521110343
    Empirical Dispersion Energy =           0.0000000000000000
    VV10 Nonlocal Energy =                  0.0000000000000000
    Total Energy =                       -150.3145412497811719

  UHF NO Occupations:
  HONO-2 :    2B1u 1.9997931
  HONO-1 :    1B2u 1.9978981
  HONO-0 :    1B3g 1.0000000
  LUNO+0 :    2B2u 0.0021019
  LUNO+1 :    3B1u 0.0002069
  LUNO+2 :    4 Ag 0.0001575
  LUNO+3 :    2B3u 0.0000558


Computation Completed


Properties will be evaluated at   0.000000,   0.000000,   0.000000 [a0]

Properties computed using the B3LYP density matrix


 Multipole Moments:

 ------------------------------------------------------------------------------------
     Multipole            Electronic (a.u.)      Nuclear  (a.u.)        Total (a.u.)
 ------------------------------------------------------------------------------------

 L = 1.  Multiply by 2.5417464519 to convert [e a0] to [Debye]
 Dipole X            :          0.0000000            0.0000000            0.0000000
 Dipole Y            :          0.0000000            0.0000000            0.0000000
 Dipole Z            :          0.0000000            0.0000000            0.0000000
 Magnitude           :                                                    0.0000000

 L = 2.  Multiply by 1.3450342976 to convert [e a0^2] to [Debye ang]
 Quadrupole XX       :         -9.9189081            0.0000000           -9.9189081
 Quadrupole XY       :          0.0000000            0.0000000            0.0000000
 Quadrupole XZ       :          0.0000000            0.0000000            0.0000000
 Quadrupole YY       :         -9.1214073            0.0000000           -9.1214073
 Quadrupole YZ       :          0.0000000            0.0000000            0.0000000
 Quadrupole ZZ       :        -56.6917603           44.9859897          -11.7057706
 Traceless XX        :         15.3251172          -14.9953299            0.3297873
 Traceless YY        :         16.1226179          -14.9953299            1.1272880
 Traceless ZZ        :        -31.4477351           29.9906598           -1.4570753

 ------------------------------------------------------------------------------------
  ==> Computing MBIS Charges <==

  Electron Count from Grid (Expected Number): 17.00000 (17.00000)
  Difference: -0.00000

  MBIS Charges: (a.u.)
   Center  Symbol  Z      Pop.       Charge
      1       O    8    8.500000   -0.500000
      2       O    8    8.500000   -0.500000

  MBIS Dipoles: [e a0]
   Center  Symbol  Z        X           Y           Z
      1       O    8    0.000000    0.000000    0.051673
      2       O    8    0.000000    0.000000   -0.051673

  MBIS Quadrupoles: [e a0^2]
   Center  Symbol  Z      XX        XY        XZ        YY        YZ        ZZ
      1       O    8   -4.9595   -0.0000    0.0000   -4.5607   -0.0000   -4.2738
      2       O    8   -4.9595   -0.0000   -0.0000   -4.5607    0.0000   -4.2738

  MBIS Octupoles: [e a0^3]
   Center  Symbol  Z      XXX       XXY       XXZ       XYY       XYZ       XZZ       YYY       YYZ       YZZ       ZZZ
      1       O    8   -0.0000   -0.0000    0.0470   -0.0000   -0.0000   -0.0000    0.0000   -0.0478   -0.0000   -0.3471
      2       O    8   -0.0000   -0.0000   -0.0470    0.0000    0.0000    0.0000    0.0000    0.0478    0.0000    0.3471

  MBIS Radial Moments:
   Center  Symbol  Z      [a0^2]      [a0^3]      [a0^4]      
      1       O    8   13.793939   27.853115   67.028770
      2       O    8   13.793939   27.853115   67.028770

  MBIS Valence Widths: [a0]
   Center  Symbol  Z     Width
      1       O    8    0.410853
      2       O    8    0.410853

*** tstop() called on Mac.lan at Sun Aug 10 17:28:51 2025
Module time:
	user time   =       4.67 seconds =       0.08 minutes
	system time =       1.48 seconds =       0.02 minutes
	total time  =          1 seconds =       0.02 minutes
Total time:
	user time   =      16.42 seconds =       0.27 minutes
	system time =       3.93 seconds =       0.07 minutes
	total time  =          2 seconds =       0.03 minutes

    Psi4 stopped on: Sunday, 10 August 2025 05:28PM
    Psi4 wall time for execution: 0:00:01.98

*** Psi4 exiting successfully. Buy a developer a beer!
