
    -----------------------------------------------------------------------
          Psi4: An Open-Source Ab Initio Electronic Structure Package
                               Psi4 1.9.1 release

                         Git: Rev {} zzzzzzz 


    D. G. A. Smith, L. A. Burns, A. C. Simmonett, R. M. Parrish,
    M. C. Schieber, R. Galvelis, P. Kraus, H. Kruse, R. Di Remigio,
    A. Alenaizan, A. M. James, S. Lehtola, J. P. Misiewicz, M. Scheurer,
    R. A. Shaw, J. B. Schriber, Y. Xie, Z. L. Glick, D. A. Sirianni,
    J. S. O'Brien, J. M. Waldrop, A. Kumar, E. G. Hohenstein,
    B. P. Pritchard, B. R. Brooks, H. F. Schaefer III, A. Yu. Sokolov,
    K. Patkowski, A. E. DePrince III, U. Bozkaya, R. A. King,
    F. A. Evangelista, J. M. Turney, T. D. Crawford, C. D. Sherrill,
    J. Chem. Phys. 152(18) 184108 (2020). https://doi.org/10.1063/5.0006002

                            Additional Code Authors
    E. T. Seidl, C. L. Janssen, E. F. Valeev, M. L. Leininger,
    J. F. Gonthier, R. M. Richard, H. R. McAlexander, M. Saitow, X. Wang,
    P. Verma, M. H. Lechner, A. Jiang, S. Behnle, A. G. Heide,
    M. F. Herbst, and D. L. Poole

             Previous Authors, Complete List of Code Contributors,
                       and Citations for Specific Modules
    https://github.com/psi4/psi4/blob/master/codemeta.json
    https://github.com/psi4/psi4/graphs/contributors
    http://psicode.org/psi4manual/master/introduction.html#citing-psifour

    -----------------------------------------------------------------------


    Psi4 started on: Sunday, 10 August 2025 05:27PM

    Process ID: 48850
    Host:       Mac.lan
    PSIDATADIR: /Users/joseantoniorodriguesromero/anaconda3/share/psi4
    Memory:     500.0 MiB
    Threads:    1
    
  ==> Input File <==

--------------------------------------------------------------------------
molecule { 
-1 2
O           0.000000           0.000000           0.000000
O           0.000000           0.000000           0.790721
}

set { 
basis              cc-pvtz
reference          uks
maxiter            500
DAMPING_PERCENTAGE 1
E_CONVERGENCE      1.0E-8
D_CONVERGENCE      1.0E-8
DIIS_MAX_VECS      400
MBIS_MAXITER       8000
guess              read
}

E, wfn = energy('b3lyp', restart_file='last_wfn', return_wfn=True)
properties('b3lyp','MBIS_CHARGES', wfn=wfn)
wfn.to_file('last_wfn')
--------------------------------------------------------------------------

Scratch directory: /tmp/
 Found user provided orbital data. Setting orbital guess to READ 
 Copying restart file <last_wfn.npy> to </tmp/scan_OO_11.default.48850.180.npy> for internal processing
   => Libint2 <=

    Primary   basis highest AM E, G, H:  6, 6, 3
    Auxiliary basis highest AM E, G, H:  7, 7, 4
    Onebody   basis highest AM E, G, H:  -, -, -
    Solid Harmonics ordering:            Gaussian

*** tstart() called on Mac.lan
*** at Sun Aug 10 17:27:36 2025

   => Loading Basis Set <=

    Name: CC-PVTZ
    Role: ORBITAL
    Keyword: BASIS
    atoms 1-2 entry O          line   262 file /Users/joseantoniorodriguesromero/anaconda3/share/psi4/basis/cc-pvtz.gbs 


         ---------------------------------------------------------
                                   SCF
               by Justin Turney, Rob Parrish, Andy Simmonett
                          and Daniel G. A. Smith
                              UKS Reference
                        1 Threads,    500 MiB Core
         ---------------------------------------------------------

  ==> Geometry <==

    Molecular point group: d2h
    Full point group: D_inf_h

    Geometry (in Angstrom), charge = -1, multiplicity = 2:

       Center              X                  Y                   Z               Mass       
    ------------   -----------------  -----------------  -----------------  -----------------
         O            0.000000000000     0.000000000000    -0.395360500000    15.994914619570
         O            0.000000000000     0.000000000000     0.395360500000    15.994914619570

  Running in d2h symmetry.

  Rotational constants: A = ************  B =      3.37130  C =      3.37130 [cm^-1]
  Rotational constants: A = ************  B = 101069.17552  C = 101069.17552 [MHz]
  Nuclear repulsion =   42.830962479660975

  Charge       = -1
  Multiplicity = 2
  Electrons    = 17
  Nalpha       = 9
  Nbeta        = 8

  ==> Algorithm <==

  SCF Algorithm Type is DF.
  DIIS enabled.
  MOM disabled.
  Fractional occupation disabled.
  Guess Type is READ.
  Energy threshold   = 1.00e-08
  Density threshold  = 1.00e-08
  Integral threshold = 1.00e-12

  ==> Primary Basis <==

  Basis Set: CC-PVTZ
    Blend: CC-PVTZ
    Number of shells: 20
    Number of basis functions: 60
    Number of Cartesian functions: 70
    Spherical Harmonics?: true
    Max angular momentum: 3

  ==> DFT Potential <==

   => LibXC <=

    Version 6.2.2
    S. Lehtola, C. Steigemann, M. J.T. Oliveira, and M. A.L. Marques.,  SoftwareX 7, 1–5 (2018) (10.1016/j.softx.2017.11.002)

   => Composite Functional: B3LYP <= 

    B3LYP Hyb-GGA Exchange-Correlation Functional

    P. J. Stephens, F. J. Devlin, C. F. Chabalowski, and M. J. Frisch.,  J. Phys. Chem. 98, 11623 (1994) (10.1021/j100096a001)

    Deriv               =              1
    GGA                 =           TRUE
    Meta                =          FALSE

    Exchange Hybrid     =           TRUE
    MP2 Hybrid          =          FALSE

   => Exchange Functionals <=

    0.0800   Slater exchange
    0.7200         Becke 88

   => Exact (HF) Exchange <=

    0.2000               HF 

   => Correlation Functionals <=

    0.1900   Vosko, Wilk & Nusair (VWN5_RPA)
    0.8100   Lee, Yang & Parr

   => LibXC Density Thresholds  <==

    XC_HYB_GGA_XC_B3LYP:  1.00E-15 

   => Molecular Quadrature <=

    Radial Scheme          =       TREUTLER
    Pruning Scheme         =           NONE
    Nuclear Scheme         =       TREUTLER

    Blocking Scheme        =         OCTREE
    BS radius alpha        =              1
    Pruning alpha          =              1
    Radial Points          =             75
    Spherical Points       =            302
    Total Points           =          42348
    Total Blocks           =            374
    Max Points             =            255
    Max Functions          =             60
    Weights Tolerance      =       1.00E-15

   => Loading Basis Set <=

    Name: (CC-PVTZ AUX)
    Role: JKFIT
    Keyword: DF_BASIS_SCF
    atoms 1-2 entry O          line   229 file /Users/joseantoniorodriguesromero/anaconda3/share/psi4/basis/cc-pvtz-jkfit.gbs 

   => Loading Basis Set <=

    Name: CC-PVTZ
    Role: ORBITAL
    Keyword: BASIS
    atoms 1-2 entry O          line   262 file /Users/joseantoniorodriguesromero/anaconda3/share/psi4/basis/cc-pvtz.gbs 

  Reading orbitals from file /tmp/scan_OO_11.default.48850.180.npy, no projection.

  ==> Integral Setup <==

  DFHelper Memory: AOs need 0.005 GiB; user supplied 0.295 GiB. 
  Using in-core AOs.

  ==> MemDFJK: Density-Fitted J/K Matrices <==

    J tasked:                   Yes
    K tasked:                   Yes
    wK tasked:                   No
    OpenMP threads:               1
    Memory [MiB]:               302
    Algorithm:                 Core
    Schwarz Cutoff:           1E-12
    Mask sparsity (%):       0.0000
    Fitting Condition:        1E-10

   => Auxiliary Basis Set <=

  Basis Set: (CC-PVTZ AUX)
    Blend: CC-PVTZ-JKFIT
    Number of shells: 50
    Number of basis functions: 158
    Number of Cartesian functions: 192
    Spherical Harmonics?: true
    Max angular momentum: 4

  Cached 100.0% of DFT collocation blocks in 0.071 [GiB].

  Minimum eigenvalue in the overlap matrix is 1.6777986249E-03.
  Reciprocal condition number of the overlap matrix is 4.3164997500E-04.
    Using symmetric orthogonalization.

  ==> Pre-Iterations <==

  SCF Guess: Orbitals guess was supplied from a previous computation.

   -------------------------------------------------------
    Irrep   Nso     Nmo     Nalpha   Nbeta   Ndocc  Nsocc
   -------------------------------------------------------
     Ag        13      13       3       3       3       0
     B1g        3       3       0       0       0       0
     B2g        7       7       1       1       1       0
     B3g        7       7       1       0       0       1
     Au         3       3       0       0       0       0
     B1u       13      13       2       2       2       0
     B2u        7       7       1       1       1       0
     B3u        7       7       1       1       1       0
   -------------------------------------------------------
    Total      60      60       9       8       8       1
   -------------------------------------------------------

  ==> Iterations <==

                           Total Energy        Delta E     RMS |[F,P]|

   @DF-UKS iter   0:  -149.41421188713520   -1.49414e+02   1.50195e-02 
   @DF-UKS iter   1:  -149.36412469814059    5.00872e-02   3.12708e-03 DIIS/ADIIS
   @DF-UKS iter   2:  -149.36278505124213    1.33965e-03   4.25775e-03 DIIS/ADIIS/DAMP=1%
   @DF-UKS iter   3:  -149.36211926440222    6.65787e-04   1.05660e-04 DIIS/ADIIS/DAMP=1%
   @DF-UKS iter   4:  -149.36590017263612   -3.78091e-03   3.15602e-05 DIIS/DAMP=1%
   @DF-UKS iter   5:  -149.36586179893771    3.83737e-05   2.31845e-06 DIIS/DAMP=1%
   @DF-UKS iter   6:  -149.36588368288383   -2.18839e-05   3.72679e-07 DIIS/DAMP=1%
   @DF-UKS iter   7:  -149.36588512365151   -1.44077e-06   7.47038e-08 DIIS/DAMP=1%
   @DF-UKS iter   8:  -149.36588478052286    3.43129e-07   1.91940e-08 DIIS/DAMP=1%
   @DF-UKS iter   9:  -149.36588487556054   -9.50377e-08   1.61363e-09 DIIS/DAMP=1%
   @DF-UKS iter  10:  -149.36588485608110    1.94794e-08   8.39636e-11 DIIS/DAMP=1%
   @DF-UKS iter  11:  -149.36588485750104   -1.41995e-09   1.24179e-11 DIIS/DAMP=1%
  Energy and wave function converged.


  ==> Post-Iterations <==

   Electrons on quadrature grid:
      Nalpha   =    8.9999997887 ; deviation = -2.113e-07
      Nbeta    =    7.9999997979 ; deviation = -2.021e-07
      Ntotal   =   16.9999995866 ; deviation = -4.134e-07 

   @Spin Contamination Metric:   1.077936508E-03
   @S^2 Expected:                7.500000000E-01
   @S^2 Observed:                7.510779365E-01
   @S   Expected:                5.000000000E-01
   @S   Observed:                5.000000000E-01

    Orbital Energies [Eh]
    ---------------------

    Alpha Occupied:                                                       

       1Ag   -18.806541     1B1u  -18.793153     2Ag    -1.323580  
       1B2u   -0.404545     1B3u   -0.366958     2B1u   -0.286271  
       3Ag    -0.224218     1B3g    0.317703     1B2g    0.354030  

    Alpha Virtual:                                                        

       3B1u    0.628430     2B2u    0.736565     2B3u    0.757095  
       4Ag     0.789134     2B3g    0.981037     2B2g    1.004676  
       5Ag     1.029209     4B1u    1.469680     1B1g    1.506806  
       6Ag     1.507176     5B1u    1.811795     3B2u    2.014975  
       3B3u    2.045057     1Au     2.190273     6B1u    2.190815  
       7Ag     2.424848     3B3g    2.616511     3B2g    2.641598  
       7B1u    3.488430     4B2u    3.708938     4B3u    3.741050  
       8Ag     4.409610     4B3g    4.496567     4B2g    4.530956  
       8B1u    4.841228     5B2u    4.961180     5B3u    4.961189  
       2B1g    5.057471     9Ag     5.057947     6B2u    5.527466  
       6B3u    5.557123     5B3g    5.940704     5B2g    5.940721  
      10Ag     6.013843     6B3g    6.163322     6B2g    6.191832  
      11Ag     6.439602     3B1g    6.439724     9B1u    6.515817  
       2Au     6.516121    12Ag     6.664119    10B1u    7.095652  
       7B2u    7.441545     7B3u    7.472441     3Au     7.509876  
      11B1u    7.510307    12B1u    9.029818     7B3g   10.008993  
       7B2g   10.040564    13Ag    10.954003    13B1u   30.936572  

    Beta Occupied:                                                        

       1Ag   -18.795401     1B1u  -18.781855     2Ag    -1.309278  
       1B3u   -0.357311     1B2u   -0.340614     2B1u   -0.247889  
       3Ag    -0.199544     1B2g    0.366831  

    Beta Virtual:                                                         

       1B3g    0.468415     3B1u    0.636429     2B2u    0.759929  
       2B3u    0.760946     4Ag     0.795211     2B2g    1.013099  
       2B3g    1.035887     5Ag     1.042660     4B1u    1.489066  
       1B1g    1.524495     6Ag     1.525522     5B1u    1.833077  
       3B3u    2.049105     3B2u    2.053228     1Au     2.223174  
       6B1u    2.224841     7Ag     2.433068     3B2g    2.646914  
       3B3g    2.654086     7B1u    3.503399     4B3u    3.749067  
       4B2u    3.752823     8Ag     4.421601     4B2g    4.540815  
       4B3g    4.548259     8B1u    4.865500     5B3u    4.985011  
       5B2u    4.985121     2B1g    5.071868     9Ag     5.072767  
       6B3u    5.561775     6B2u    5.562791     5B2g    5.974211  
       5B3g    5.974373    10Ag     6.027733     6B2g    6.195915  
       6B3g    6.200534     3B1g    6.479213    11Ag     6.481310  
       2Au     6.556445     9B1u    6.558694    12Ag     6.678992  
      10B1u    7.111960     7B2u    7.475506     7B3u    7.476305  
       3Au     7.536023    11B1u    7.537304    12B1u    9.043168  
       7B2g   10.046471     7B3g   10.048915    13Ag    10.973272  
      13B1u   30.951133  

    Final Occupation by Irrep:
             Ag   B1g   B2g   B3g    Au   B1u   B2u   B3u 
    DOCC [     3,    0,    1,    0,    0,    2,    1,    1 ]
    SOCC [     0,    0,    0,    1,    0,    0,    0,    0 ]
    NA   [     3,    0,    1,    1,    0,    2,    1,    1 ]
    NB   [     3,    0,    1,    0,    0,    2,    1,    1 ]

  @DF-UKS Final Energy:  -149.36588485750104

   => Energetics <=

    Nuclear Repulsion Energy =             42.8309624796609754
    One-Electron Energy =                -294.7403804210243266
    Two-Electron Energy =                 117.1327940248189066
    DFT Exchange-Correlation Energy =     -14.5892609409566028
    Empirical Dispersion Energy =           0.0000000000000000
    VV10 Nonlocal Energy =                  0.0000000000000000
    Total Energy =                       -149.3658848575010438

  UHF NO Occupations:
  HONO-2 :    2B1u 1.9998253
  HONO-1 :    1B2u 1.9997934
  HONO-0 :    1B3g 1.0000000
  LUNO+0 :    2B2u 0.0002066
  LUNO+1 :    3B1u 0.0001747
  LUNO+2 :    4 Ag 0.0000971
  LUNO+3 :    2B2g 0.0000477


Computation Completed


Properties will be evaluated at   0.000000,   0.000000,   0.000000 [a0]

Properties computed using the SCF density matrix


 Multipole Moments:

 ------------------------------------------------------------------------------------
     Multipole            Electronic (a.u.)      Nuclear  (a.u.)        Total (a.u.)
 ------------------------------------------------------------------------------------

 L = 1.  Multiply by 2.5417464519 to convert [e a0] to [Debye]
 Dipole X            :          0.0000000            0.0000000            0.0000000
 Dipole Y            :          0.0000000            0.0000000            0.0000000
 Dipole Z            :          0.0000000            0.0000000            0.0000000
 Magnitude           :                                                    0.0000000

 ------------------------------------------------------------------------------------

*** tstop() called on Mac.lan at Sun Aug 10 17:27:38 2025
Module time:
	user time   =      14.34 seconds =       0.24 minutes
	system time =       2.32 seconds =       0.04 minutes
	total time  =          2 seconds =       0.03 minutes
Total time:
	user time   =      14.34 seconds =       0.24 minutes
	system time =       2.32 seconds =       0.04 minutes
	total time  =          2 seconds =       0.03 minutes

*** tstart() called on Mac.lan
*** at Sun Aug 10 17:27:38 2025

   => Libint2 <=

    Primary   basis highest AM E, G, H:  6, 6, 3
    Auxiliary basis highest AM E, G, H:  7, 7, 4
    Onebody   basis highest AM E, G, H:  -, -, -
    Solid Harmonics ordering:            Gaussian
   => Loading Basis Set <=

    Name: CC-PVTZ
    Role: ORBITAL
    Keyword: BASIS
    atoms 1-2 entry O          line   262 file /Users/joseantoniorodriguesromero/anaconda3/share/psi4/basis/cc-pvtz.gbs 


         ---------------------------------------------------------
                                   SCF
               by Justin Turney, Rob Parrish, Andy Simmonett
                          and Daniel G. A. Smith
                              UKS Reference
                        1 Threads,    500 MiB Core
         ---------------------------------------------------------

  ==> Geometry <==

    Molecular point group: d2h
    Full point group: D_inf_h

    Geometry (in Angstrom), charge = -1, multiplicity = 2:

       Center              X                  Y                   Z               Mass       
    ------------   -----------------  -----------------  -----------------  -----------------
         O            0.000000000000     0.000000000000    -0.395360500000    15.994914619570
         O            0.000000000000     0.000000000000     0.395360500000    15.994914619570

  Running in d2h symmetry.

  Rotational constants: A = ************  B =      3.37130  C =      3.37130 [cm^-1]
  Rotational constants: A = ************  B = 101069.17552  C = 101069.17552 [MHz]
  Nuclear repulsion =   42.830962479660975

  Charge       = -1
  Multiplicity = 2
  Electrons    = 17
  Nalpha       = 9
  Nbeta        = 8

  ==> Algorithm <==

  SCF Algorithm Type is DF.
  DIIS enabled.
  MOM disabled.
  Fractional occupation disabled.
  Guess Type is READ.
  Energy threshold   = 1.00e-08
  Density threshold  = 1.00e-08
  Integral threshold = 1.00e-12

  ==> Primary Basis <==

  Basis Set: CC-PVTZ
    Blend: CC-PVTZ
    Number of shells: 20
    Number of basis functions: 60
    Number of Cartesian functions: 70
    Spherical Harmonics?: true
    Max angular momentum: 3

  ==> DFT Potential <==

   => LibXC <=

    Version 6.2.2
    S. Lehtola, C. Steigemann, M. J.T. Oliveira, and M. A.L. Marques.,  SoftwareX 7, 1–5 (2018) (10.1016/j.softx.2017.11.002)

   => Composite Functional: B3LYP <= 

    B3LYP Hyb-GGA Exchange-Correlation Functional

    P. J. Stephens, F. J. Devlin, C. F. Chabalowski, and M. J. Frisch.,  J. Phys. Chem. 98, 11623 (1994) (10.1021/j100096a001)

    Deriv               =              1
    GGA                 =           TRUE
    Meta                =          FALSE

    Exchange Hybrid     =           TRUE
    MP2 Hybrid          =          FALSE

   => Exchange Functionals <=

    0.0800   Slater exchange
    0.7200         Becke 88

   => Exact (HF) Exchange <=

    0.2000               HF 

   => Correlation Functionals <=

    0.1900   Vosko, Wilk & Nusair (VWN5_RPA)
    0.8100   Lee, Yang & Parr

   => LibXC Density Thresholds  <==

    XC_HYB_GGA_XC_B3LYP:  1.00E-15 

   => Molecular Quadrature <=

    Radial Scheme          =       TREUTLER
    Pruning Scheme         =           NONE
    Nuclear Scheme         =       TREUTLER

    Blocking Scheme        =         OCTREE
    BS radius alpha        =              1
    Pruning alpha          =              1
    Radial Points          =             75
    Spherical Points       =            302
    Total Points           =          42348
    Total Blocks           =            374
    Max Points             =            255
    Max Functions          =             60
    Weights Tolerance      =       1.00E-15

   => Loading Basis Set <=

    Name: (CC-PVTZ AUX)
    Role: JKFIT
    Keyword: DF_BASIS_SCF
    atoms 1-2 entry O          line   229 file /Users/joseantoniorodriguesromero/anaconda3/share/psi4/basis/cc-pvtz-jkfit.gbs 

   => Loading Basis Set <=

    Name: CC-PVTZ
    Role: ORBITAL
    Keyword: BASIS
    atoms 1-2 entry O          line   262 file /Users/joseantoniorodriguesromero/anaconda3/share/psi4/basis/cc-pvtz.gbs 

  Reading orbitals from file /tmp/scan_OO_11.default.48850.180.npy, no projection.

  ==> Integral Setup <==

  DFHelper Memory: AOs need 0.005 GiB; user supplied 0.295 GiB. 
  Using in-core AOs.

  ==> MemDFJK: Density-Fitted J/K Matrices <==

    J tasked:                   Yes
    K tasked:                   Yes
    wK tasked:                   No
    OpenMP threads:               1
    Memory [MiB]:               302
    Algorithm:                 Core
    Schwarz Cutoff:           1E-12
    Mask sparsity (%):       0.0000
    Fitting Condition:        1E-10

   => Auxiliary Basis Set <=

  Basis Set: (CC-PVTZ AUX)
    Blend: CC-PVTZ-JKFIT
    Number of shells: 50
    Number of basis functions: 158
    Number of Cartesian functions: 192
    Spherical Harmonics?: true
    Max angular momentum: 4

  Cached 100.0% of DFT collocation blocks in 0.071 [GiB].

  Minimum eigenvalue in the overlap matrix is 1.6777986249E-03.
  Reciprocal condition number of the overlap matrix is 4.3164997500E-04.
    Using symmetric orthogonalization.

  ==> Pre-Iterations <==

  SCF Guess: Orbitals guess was supplied from a previous computation.

   -------------------------------------------------------
    Irrep   Nso     Nmo     Nalpha   Nbeta   Ndocc  Nsocc
   -------------------------------------------------------
     Ag        13      13       3       3       3       0
     B1g        3       3       0       0       0       0
     B2g        7       7       1       1       1       0
     B3g        7       7       1       0       0       1
     Au         3       3       0       0       0       0
     B1u       13      13       2       2       2       0
     B2u        7       7       1       1       1       0
     B3u        7       7       1       1       1       0
   -------------------------------------------------------
    Total      60      60       9       8       8       1
   -------------------------------------------------------

  ==> Iterations <==

                           Total Energy        Delta E     RMS |[F,P]|

   @DF-UKS iter   0:  -149.36588485742803   -1.49366e+02   1.26657e-12 
   @DF-UKS iter   1:  -149.36588485742806   -2.84217e-14   1.74990e-12 DIIS
  Energy and wave function converged.


  ==> Post-Iterations <==

   Electrons on quadrature grid:
      Nalpha   =    8.9999997887 ; deviation = -2.113e-07
      Nbeta    =    7.9999997979 ; deviation = -2.021e-07
      Ntotal   =   16.9999995866 ; deviation = -4.134e-07 

   @Spin Contamination Metric:   1.077936508E-03
   @S^2 Expected:                7.500000000E-01
   @S^2 Observed:                7.510779365E-01
   @S   Expected:                5.000000000E-01
   @S   Observed:                5.000000000E-01

    Orbital Energies [Eh]
    ---------------------

    Alpha Occupied:                                                       

       1Ag   -18.806541     1B1u  -18.793153     2Ag    -1.323580  
       1B2u   -0.404545     1B3u   -0.366958     2B1u   -0.286271  
       3Ag    -0.224218     1B3g    0.317703     1B2g    0.354030  

    Alpha Virtual:                                                        

       3B1u    0.628430     2B2u    0.736565     2B3u    0.757095  
       4Ag     0.789134     2B3g    0.981037     2B2g    1.004676  
       5Ag     1.029209     4B1u    1.469680     1B1g    1.506806  
       6Ag     1.507176     5B1u    1.811795     3B2u    2.014975  
       3B3u    2.045057     1Au     2.190273     6B1u    2.190815  
       7Ag     2.424848     3B3g    2.616511     3B2g    2.641598  
       7B1u    3.488430     4B2u    3.708938     4B3u    3.741050  
       8Ag     4.409610     4B3g    4.496567     4B2g    4.530956  
       8B1u    4.841228     5B2u    4.961180     5B3u    4.961189  
       2B1g    5.057471     9Ag     5.057947     6B2u    5.527466  
       6B3u    5.557123     5B3g    5.940704     5B2g    5.940721  
      10Ag     6.013843     6B3g    6.163322     6B2g    6.191832  
      11Ag     6.439602     3B1g    6.439724     9B1u    6.515817  
       2Au     6.516121    12Ag     6.664119    10B1u    7.095652  
       7B2u    7.441545     7B3u    7.472441     3Au     7.509876  
      11B1u    7.510307    12B1u    9.029818     7B3g   10.008993  
       7B2g   10.040564    13Ag    10.954003    13B1u   30.936572  

    Beta Occupied:                                                        

       1Ag   -18.795401     1B1u  -18.781855     2Ag    -1.309278  
       1B3u   -0.357311     1B2u   -0.340614     2B1u   -0.247889  
       3Ag    -0.199544     1B2g    0.366831  

    Beta Virtual:                                                         

       1B3g    0.468415     3B1u    0.636429     2B2u    0.759929  
       2B3u    0.760946     4Ag     0.795211     2B2g    1.013099  
       2B3g    1.035887     5Ag     1.042660     4B1u    1.489066  
       1B1g    1.524495     6Ag     1.525522     5B1u    1.833077  
       3B3u    2.049105     3B2u    2.053228     1Au     2.223174  
       6B1u    2.224841     7Ag     2.433068     3B2g    2.646914  
       3B3g    2.654086     7B1u    3.503399     4B3u    3.749067  
       4B2u    3.752823     8Ag     4.421601     4B2g    4.540815  
       4B3g    4.548259     8B1u    4.865500     5B3u    4.985011  
       5B2u    4.985121     2B1g    5.071868     9Ag     5.072767  
       6B3u    5.561775     6B2u    5.562791     5B2g    5.974211  
       5B3g    5.974373    10Ag     6.027733     6B2g    6.195915  
       6B3g    6.200534     3B1g    6.479213    11Ag     6.481310  
       2Au     6.556445     9B1u    6.558694    12Ag     6.678992  
      10B1u    7.111960     7B2u    7.475506     7B3u    7.476305  
       3Au     7.536023    11B1u    7.537304    12B1u    9.043168  
       7B2g   10.046471     7B3g   10.048915    13Ag    10.973272  
      13B1u   30.951133  

    Final Occupation by Irrep:
             Ag   B1g   B2g   B3g    Au   B1u   B2u   B3u 
    DOCC [     3,    0,    1,    0,    0,    2,    1,    1 ]
    SOCC [     0,    0,    0,    1,    0,    0,    0,    0 ]
    NA   [     3,    0,    1,    1,    0,    2,    1,    1 ]
    NB   [     3,    0,    1,    0,    0,    2,    1,    1 ]

  @DF-UKS Final Energy:  -149.36588485742806

   => Energetics <=

    Nuclear Repulsion Energy =             42.8309624796609754
    One-Electron Energy =                -294.7403804226879060
    Two-Electron Energy =                 117.1327940267066907
    DFT Exchange-Correlation Energy =     -14.5892609411078187
    Empirical Dispersion Energy =           0.0000000000000000
    VV10 Nonlocal Energy =                  0.0000000000000000
    Total Energy =                       -149.3658848574280853

  UHF NO Occupations:
  HONO-2 :    2B1u 1.9998253
  HONO-1 :    1B2u 1.9997934
  HONO-0 :    1B3g 1.0000000
  LUNO+0 :    2B2u 0.0002066
  LUNO+1 :    3B1u 0.0001747
  LUNO+2 :    4 Ag 0.0000971
  LUNO+3 :    2B2g 0.0000477


Computation Completed


Properties will be evaluated at   0.000000,   0.000000,   0.000000 [a0]

Properties computed using the B3LYP density matrix


 Multipole Moments:

 ------------------------------------------------------------------------------------
     Multipole            Electronic (a.u.)      Nuclear  (a.u.)        Total (a.u.)
 ------------------------------------------------------------------------------------

 L = 1.  Multiply by 2.5417464519 to convert [e a0] to [Debye]
 Dipole X            :          0.0000000            0.0000000            0.0000000
 Dipole Y            :          0.0000000            0.0000000            0.0000000
 Dipole Z            :          0.0000000            0.0000000            0.0000000
 Magnitude           :                                                    0.0000000

 L = 2.  Multiply by 1.3450342976 to convert [e a0^2] to [Debye ang]
 Quadrupole XX       :         -9.2733414            0.0000000           -9.2733414
 Quadrupole XY       :          0.0000000            0.0000000            0.0000000
 Quadrupole XZ       :          0.0000000            0.0000000            0.0000000
 Quadrupole YY       :         -8.1277592            0.0000000           -8.1277592
 Quadrupole YZ       :          0.0000000            0.0000000            0.0000000
 Quadrupole ZZ       :        -20.4279104            8.9310860          -11.4968244
 Traceless XX        :          3.3363289           -2.9770287            0.3593003
 Traceless YY        :          4.4819111           -2.9770287            1.5048825
 Traceless ZZ        :         -7.8182401            5.9540573           -1.8641827

 ------------------------------------------------------------------------------------
  ==> Computing MBIS Charges <==

  Electron Count from Grid (Expected Number): 17.00000 (17.00000)
  Difference: -0.00000

  MBIS Charges: (a.u.)
   Center  Symbol  Z      Pop.       Charge
      1       O    8    8.500000   -0.500000
      2       O    8    8.500000   -0.500000

  MBIS Dipoles: [e a0]
   Center  Symbol  Z        X           Y           Z
      1       O    8    0.000000   -0.000000    0.402808
      2       O    8   -0.000000    0.000000   -0.402808

  MBIS Quadrupoles: [e a0^2]
   Center  Symbol  Z      XX        XY        XZ        YY        YZ        ZZ
      1       O    8   -4.6367   -0.0000    0.0000   -4.0639   -0.0000   -4.8674
      2       O    8   -4.6367    0.0000    0.0000   -4.0639    0.0000   -4.8674

  MBIS Octupoles: [e a0^3]
   Center  Symbol  Z      XXX       XXY       XXZ       XYY       XYZ       XZZ       YYY       YYZ       YZZ       ZZZ
      1       O    8   -0.0000   -0.0000    1.0001   -0.0000   -0.0000   -0.0000    0.0000    0.7014    0.0000    0.4416
      2       O    8   -0.0000   -0.0000   -1.0001   -0.0000    0.0000   -0.0000    0.0000   -0.7014    0.0000   -0.4416

  MBIS Radial Moments:
   Center  Symbol  Z      [a0^2]      [a0^3]      [a0^4]      
      1       O    8   13.567972   27.984277   69.572368
      2       O    8   13.567972   27.984277   69.572368

  MBIS Valence Widths: [a0]
   Center  Symbol  Z     Width
      1       O    8    0.403809
      2       O    8    0.403809

*** tstop() called on Mac.lan at Sun Aug 10 17:27:38 2025
Module time:
	user time   =       5.21 seconds =       0.09 minutes
	system time =       1.86 seconds =       0.03 minutes
	total time  =          0 seconds =       0.00 minutes
Total time:
	user time   =      19.63 seconds =       0.33 minutes
	system time =       4.31 seconds =       0.07 minutes
	total time  =          2 seconds =       0.03 minutes

    Psi4 stopped on: Sunday, 10 August 2025 05:27PM
    Psi4 wall time for execution: 0:00:02.32

*** Psi4 exiting successfully. Buy a developer a beer!
