
    -----------------------------------------------------------------------
          Psi4: An Open-Source Ab Initio Electronic Structure Package
                               Psi4 1.9.1 release

                         Git: Rev {} zzzzzzz 


    D. G. A. Smith, L. A. Burns, A. C. Simmonett, R. M. Parrish,
    M. C. Schieber, R. Galvelis, P. Kraus, H. Kruse, R. Di Remigio,
    A. Alenaizan, A. M. James, S. Lehtola, J. P. Misiewicz, M. Scheurer,
    R. A. Shaw, J. B. Schriber, Y. Xie, Z. L. Glick, D. A. Sirianni,
    J. S. O'Brien, J. M. Waldrop, A. Kumar, E. G. Hohenstein,
    B. P. Pritchard, B. R. Brooks, H. F. Schaefer III, A. Yu. Sokolov,
    K. Patkowski, A. E. DePrince III, U. Bozkaya, R. A. King,
    F. A. Evangelista, J. M. Turney, T. D. Crawford, C. D. Sherrill,
    J. Chem. Phys. 152(18) 184108 (2020). https://doi.org/10.1063/5.0006002

                            Additional Code Authors
    E. T. Seidl, C. L. Janssen, E. F. Valeev, M. L. Leininger,
    J. F. Gonthier, R. M. Richard, H. R. McAlexander, M. Saitow, X. Wang,
    P. Verma, M. H. Lechner, A. Jiang, S. Behnle, A. G. Heide,
    M. F. Herbst, and D. L. Poole

             Previous Authors, Complete List of Code Contributors,
                       and Citations for Specific Modules
    https://github.com/psi4/psi4/blob/master/codemeta.json
    https://github.com/psi4/psi4/graphs/contributors
    http://psicode.org/psi4manual/master/introduction.html#citing-psifour

    -----------------------------------------------------------------------


    Psi4 started on: Sunday, 10 August 2025 05:40PM

    Process ID: 49254
    Host:       Mac.lan
    PSIDATADIR: /Users/joseantoniorodriguesromero/anaconda3/share/psi4
    Memory:     500.0 MiB
    Threads:    1
    
  ==> Input File <==

--------------------------------------------------------------------------
molecule { 
-1 1
N           0.000000           0.000000           0.000000
C           0.000000           0.000000           0.437164
}

set { 
basis              cc-pvtz
reference          uks
maxiter            500
DAMPING_PERCENTAGE 1
E_CONVERGENCE      1.0E-8
D_CONVERGENCE      1.0E-8
DIIS_MAX_VECS      400
MBIS_MAXITER       8000
guess              read
}

E, wfn = energy('b3lyp', restart_file='last_wfn', return_wfn=True)
properties('b3lyp','MBIS_CHARGES', wfn=wfn)
wfn.to_file('last_wfn')
--------------------------------------------------------------------------

Scratch directory: /tmp/
 Found user provided orbital data. Setting orbital guess to READ 
 Copying restart file <last_wfn.npy> to </tmp/scan_CN_2.default.49254.180.npy> for internal processing
   => Libint2 <=

    Primary   basis highest AM E, G, H:  6, 6, 3
    Auxiliary basis highest AM E, G, H:  7, 7, 4
    Onebody   basis highest AM E, G, H:  -, -, -
    Solid Harmonics ordering:            Gaussian

*** tstart() called on Mac.lan
*** at Sun Aug 10 17:40:05 2025

   => Loading Basis Set <=

    Name: CC-PVTZ
    Role: ORBITAL
    Keyword: BASIS
    atoms 1 entry N          line   224 file /Users/joseantoniorodriguesromero/anaconda3/share/psi4/basis/cc-pvtz.gbs 
    atoms 2 entry C          line   186 file /Users/joseantoniorodriguesromero/anaconda3/share/psi4/basis/cc-pvtz.gbs 


         ---------------------------------------------------------
                                   SCF
               by Justin Turney, Rob Parrish, Andy Simmonett
                          and Daniel G. A. Smith
                              UKS Reference
                        1 Threads,    500 MiB Core
         ---------------------------------------------------------

  ==> Geometry <==

    Molecular point group: c2v
    Full point group: C_inf_v

    Geometry (in Angstrom), charge = -1, multiplicity = 1:

       Center              X                  Y                   Z               Mass       
    ------------   -----------------  -----------------  -----------------  -----------------
         N            0.000000000000     0.000000000000    -0.201744147600    14.003074004430
         C            0.000000000000     0.000000000000     0.235419852400    12.000000000000

  Running in c2v symmetry.

  Rotational constants: A = ************  B =     13.64985  C =     13.64985 [cm^-1]
  Rotational constants: A = ************  B = 409212.11156  C = 409212.11156 [MHz]
  Nuclear repulsion =   50.840057388394285

  Charge       = -1
  Multiplicity = 1
  Electrons    = 14
  Nalpha       = 7
  Nbeta        = 7

  ==> Algorithm <==

  SCF Algorithm Type is DF.
  DIIS enabled.
  MOM disabled.
  Fractional occupation disabled.
  Guess Type is READ.
  Energy threshold   = 1.00e-08
  Density threshold  = 1.00e-08
  Integral threshold = 1.00e-12

  ==> Primary Basis <==

  Basis Set: CC-PVTZ
    Blend: CC-PVTZ
    Number of shells: 20
    Number of basis functions: 60
    Number of Cartesian functions: 70
    Spherical Harmonics?: true
    Max angular momentum: 3

  ==> DFT Potential <==

   => LibXC <=

    Version 6.2.2
    S. Lehtola, C. Steigemann, M. J.T. Oliveira, and M. A.L. Marques.,  SoftwareX 7, 1–5 (2018) (10.1016/j.softx.2017.11.002)

   => Composite Functional: B3LYP <= 

    B3LYP Hyb-GGA Exchange-Correlation Functional

    P. J. Stephens, F. J. Devlin, C. F. Chabalowski, and M. J. Frisch.,  J. Phys. Chem. 98, 11623 (1994) (10.1021/j100096a001)

    Deriv               =              1
    GGA                 =           TRUE
    Meta                =          FALSE

    Exchange Hybrid     =           TRUE
    MP2 Hybrid          =          FALSE

   => Exchange Functionals <=

    0.0800   Slater exchange
    0.7200         Becke 88

   => Exact (HF) Exchange <=

    0.2000               HF 

   => Correlation Functionals <=

    0.1900   Vosko, Wilk & Nusair (VWN5_RPA)
    0.8100   Lee, Yang & Parr

   => LibXC Density Thresholds  <==

    XC_HYB_GGA_XC_B3LYP:  1.00E-15 

   => Molecular Quadrature <=

    Radial Scheme          =       TREUTLER
    Pruning Scheme         =           NONE
    Nuclear Scheme         =       TREUTLER

    Blocking Scheme        =         OCTREE
    BS radius alpha        =              1
    Pruning alpha          =              1
    Radial Points          =             75
    Spherical Points       =            302
    Total Points           =          42930
    Total Blocks           =            386
    Max Points             =            255
    Max Functions          =             60
    Weights Tolerance      =       1.00E-15

   => Loading Basis Set <=

    Name: (CC-PVTZ AUX)
    Role: JKFIT
    Keyword: DF_BASIS_SCF
    atoms 1 entry N          line   177 file /Users/joseantoniorodriguesromero/anaconda3/share/psi4/basis/cc-pvtz-jkfit.gbs 
    atoms 2 entry C          line   125 file /Users/joseantoniorodriguesromero/anaconda3/share/psi4/basis/cc-pvtz-jkfit.gbs 

   => Loading Basis Set <=

    Name: CC-PVTZ
    Role: ORBITAL
    Keyword: BASIS
    atoms 1 entry N          line   224 file /Users/joseantoniorodriguesromero/anaconda3/share/psi4/basis/cc-pvtz.gbs 
    atoms 2 entry C          line   186 file /Users/joseantoniorodriguesromero/anaconda3/share/psi4/basis/cc-pvtz.gbs 

  Reading orbitals from file /tmp/scan_CN_2.default.49254.180.npy, no projection.

  ==> Integral Setup <==

  DFHelper Memory: AOs need 0.005 GiB; user supplied 0.294 GiB. 
  Using in-core AOs.

  ==> MemDFJK: Density-Fitted J/K Matrices <==

    J tasked:                   Yes
    K tasked:                   Yes
    wK tasked:                   No
    OpenMP threads:               1
    Memory [MiB]:               301
    Algorithm:                 Core
    Schwarz Cutoff:           1E-12
    Mask sparsity (%):       0.0000
    Fitting Condition:        1E-10

   => Auxiliary Basis Set <=

  Basis Set: (CC-PVTZ AUX)
    Blend: CC-PVTZ-JKFIT
    Number of shells: 50
    Number of basis functions: 158
    Number of Cartesian functions: 192
    Spherical Harmonics?: true
    Max angular momentum: 4

  Cached 100.0% of DFT collocation blocks in 0.072 [GiB].

  Minimum eigenvalue in the overlap matrix is 1.0658884586E-03.
  Reciprocal condition number of the overlap matrix is 2.3933173591E-04.
    Using symmetric orthogonalization.

  ==> Pre-Iterations <==

  SCF Guess: Orbitals guess was supplied from a previous computation.

   -------------------------------------------------------
    Irrep   Nso     Nmo     Nalpha   Nbeta   Ndocc  Nsocc
   -------------------------------------------------------
     A1        26      26       5       5       5       0
     A2         6       6       0       0       0       0
     B1        14      14       1       1       1       0
     B2        14      14       1       1       1       0
   -------------------------------------------------------
    Total      60      60       7       7       7       0
   -------------------------------------------------------

  ==> Iterations <==

                           Total Energy        Delta E     RMS |[F,P]|

   @DF-UKS iter   0:   -84.91943664350539   -8.49194e+01   1.42062e-02 
   @DF-UKS iter   1:   -85.17042074267516   -2.50984e-01   3.50568e-03 ADIIS/DIIS
   @DF-UKS iter   2:   -85.16564580738003    4.77494e-03   4.76362e-03 ADIIS/DIIS/DAMP=1%
   @DF-UKS iter   3:   -85.18389383286926   -1.82480e-02   1.70202e-03 ADIIS/DIIS/DAMP=1%
   @DF-UKS iter   4:   -85.17436006406825    9.53377e-03   4.85937e-04 ADIIS/DIIS/DAMP=1%
   @DF-UKS iter   5:   -85.17598057987303   -1.62052e-03   2.30528e-04 ADIIS/DIIS/DAMP=1%
   @DF-UKS iter   6:   -85.17582494048003    1.55639e-04   9.74225e-06 DIIS/DAMP=1%
   @DF-UKS iter   7:   -85.17610739234463   -2.82452e-04   1.23442e-06 DIIS/DAMP=1%
   @DF-UKS iter   8:   -85.17611832235986   -1.09300e-05   1.85239e-07 DIIS/DAMP=1%
   @DF-UKS iter   9:   -85.17612063600400   -2.31364e-06   1.30142e-08 DIIS/DAMP=1%
   @DF-UKS iter  10:   -85.17612033773345    2.98271e-07   6.16812e-09 DIIS/DAMP=1%
   @DF-UKS iter  11:   -85.17612036982416   -3.20907e-08   3.41076e-10 DIIS/DAMP=1%
   @DF-UKS iter  12:   -85.17612036151739    8.30677e-09   3.00206e-11 DIIS/DAMP=1%
  Energy and wave function converged.


  ==> Post-Iterations <==

   Electrons on quadrature grid:
      Nalpha   =    7.0000000379 ; deviation = 3.790e-08
      Nbeta    =    7.0000000379 ; deviation = 3.790e-08
      Ntotal   =   14.0000000758 ; deviation = 7.580e-08 

   @Spin Contamination Metric:   4.174438573E-14
   @S^2 Expected:                0.000000000E+00
   @S^2 Observed:                4.174438573E-14
   @S   Expected:                0.000000000E+00
   @S   Observed:                0.000000000E+00

    Orbital Energies [Eh]
    ---------------------

    Alpha Occupied:                                                       

       1A1   -15.207552     2A1   -10.990184     1B1    -0.819450  
       1B2    -0.819450     3A1    -0.662869     4A1    -0.060997  
       5A1     0.261229  

    Alpha Virtual:                                                        

       2B1     0.329510     2B2     0.329510     6A1     0.364931  
       7A1     0.483982     3B1     0.553130     3B2     0.553130  
       8A1     0.765664     1A2     0.842979     9A1     0.842979  
       4B1     0.891589     4B2     0.891589    10A1     1.169319  
      11A1     1.386994     5B1     1.433348     5B2     1.433348  
       6B1     1.503400     6B2     1.503400     2A2     1.555006  
      12A1     1.555006    13A1     1.783209    14A1     2.240159  
       7B1     2.489782     7B2     2.489782     8B2     2.821823  
       8B1     2.821823     3A2     2.962425    15A1     2.962425  
      16A1     3.166781     9B1     3.282697     9B2     3.282697  
       4A2     3.447863    17A1     3.447864    10B1     3.601717  
      10B2     3.601717    18A1     3.620166    19A1     4.642178  
      11B1     4.649871    11B2     4.649871    20A1     4.660605  
       5A2     4.660605    12B1     4.733218    12B2     4.733218  
      21A1     5.212851    22A1     5.481904    13B2     6.588245  
      13B1     6.588245    23A1     6.963130     6A2     6.963131  
      24A1     7.920397    14B1     8.770712    14B2     8.770712  
      25A1    11.087557    26A1    27.120831  

    Beta Occupied:                                                        

       1A1   -15.207552     2A1   -10.990184     1B1    -0.819450  
       1B2    -0.819450     3A1    -0.662869     4A1    -0.060997  
       5A1     0.261229  

    Beta Virtual:                                                         

       2B1     0.329510     2B2     0.329510     6A1     0.364931  
       7A1     0.483982     3B1     0.553130     3B2     0.553130  
       8A1     0.765664     1A2     0.842979     9A1     0.842979  
       4B1     0.891589     4B2     0.891589    10A1     1.169319  
      11A1     1.386994     5B1     1.433348     5B2     1.433348  
       6B1     1.503400     6B2     1.503400     2A2     1.555006  
      12A1     1.555006    13A1     1.783209    14A1     2.240159  
       7B1     2.489782     7B2     2.489782     8B2     2.821823  
       8B1     2.821823     3A2     2.962425    15A1     2.962425  
      16A1     3.166781     9B1     3.282697     9B2     3.282697  
       4A2     3.447863    17A1     3.447864    10B1     3.601717  
      10B2     3.601717    18A1     3.620166    19A1     4.642178  
      11B1     4.649871    11B2     4.649871    20A1     4.660605  
       5A2     4.660605    12B1     4.733218    12B2     4.733218  
      21A1     5.212851    22A1     5.481904    13B2     6.588245  
      13B1     6.588245    23A1     6.963130     6A2     6.963131  
      24A1     7.920397    14B1     8.770712    14B2     8.770712  
      25A1    11.087557    26A1    27.120831  

    Final Occupation by Irrep:
             A1    A2    B1    B2 
    DOCC [     5,    0,    1,    1 ]
    SOCC [     0,    0,    0,    0 ]
    NA   [     5,    0,    1,    1 ]
    NB   [     5,    0,    1,    1 ]

  @DF-UKS Final Energy:   -85.17612036151739

   => Energetics <=

    Nuclear Repulsion Energy =             50.8400573883942855
    One-Electron Energy =                -207.5260975864553643
    Two-Electron Energy =                  82.5351065203360861
    DFT Exchange-Correlation Energy =     -11.0251866837923984
    Empirical Dispersion Energy =           0.0000000000000000
    VV10 Nonlocal Energy =                  0.0000000000000000
    Total Energy =                        -85.1761203615173912

  UHF NO Occupations:
  HONO-2 :    4 A1 2.0000000
  HONO-1 :    1 B2 2.0000000
  HONO-0 :    5 A1 2.0000000
  LUNO+0 :    6 A1 0.0000000
  LUNO+1 :    2 B1 0.0000000
  LUNO+2 :    7 A1 0.0000000
  LUNO+3 :    8 A1 0.0000000


Computation Completed


Properties will be evaluated at   0.000000,   0.000000,   0.000000 [a0]

Properties computed using the SCF density matrix


 Multipole Moments:

 ------------------------------------------------------------------------------------
     Multipole            Electronic (a.u.)      Nuclear  (a.u.)        Total (a.u.)
 ------------------------------------------------------------------------------------

 L = 1.  Multiply by 2.5417464519 to convert [e a0] to [Debye]
 Dipole X            :          0.0000000            0.0000000            0.0000000
 Dipole Y            :          0.0000000            0.0000000            0.0000000
 Dipole Z            :         -0.0016224            0.0005860           -0.0010364
 Magnitude           :                                                    0.0010364

 ------------------------------------------------------------------------------------

*** tstop() called on Mac.lan at Sun Aug 10 17:40:06 2025
Module time:
	user time   =      16.00 seconds =       0.27 minutes
	system time =       1.99 seconds =       0.03 minutes
	total time  =          1 seconds =       0.02 minutes
Total time:
	user time   =      16.00 seconds =       0.27 minutes
	system time =       1.99 seconds =       0.03 minutes
	total time  =          1 seconds =       0.02 minutes

*** tstart() called on Mac.lan
*** at Sun Aug 10 17:40:06 2025

   => Libint2 <=

    Primary   basis highest AM E, G, H:  6, 6, 3
    Auxiliary basis highest AM E, G, H:  7, 7, 4
    Onebody   basis highest AM E, G, H:  -, -, -
    Solid Harmonics ordering:            Gaussian
   => Loading Basis Set <=

    Name: CC-PVTZ
    Role: ORBITAL
    Keyword: BASIS
    atoms 1 entry N          line   224 file /Users/joseantoniorodriguesromero/anaconda3/share/psi4/basis/cc-pvtz.gbs 
    atoms 2 entry C          line   186 file /Users/joseantoniorodriguesromero/anaconda3/share/psi4/basis/cc-pvtz.gbs 


         ---------------------------------------------------------
                                   SCF
               by Justin Turney, Rob Parrish, Andy Simmonett
                          and Daniel G. A. Smith
                              UKS Reference
                        1 Threads,    500 MiB Core
         ---------------------------------------------------------

  ==> Geometry <==

    Molecular point group: c2v
    Full point group: C_inf_v

    Geometry (in Angstrom), charge = -1, multiplicity = 1:

       Center              X                  Y                   Z               Mass       
    ------------   -----------------  -----------------  -----------------  -----------------
         N            0.000000000000     0.000000000000    -0.201744147600    14.003074004430
         C            0.000000000000     0.000000000000     0.235419852400    12.000000000000

  Running in c2v symmetry.

  Rotational constants: A = ************  B =     13.64985  C =     13.64985 [cm^-1]
  Rotational constants: A = ************  B = 409212.11156  C = 409212.11156 [MHz]
  Nuclear repulsion =   50.840057388394285

  Charge       = -1
  Multiplicity = 1
  Electrons    = 14
  Nalpha       = 7
  Nbeta        = 7

  ==> Algorithm <==

  SCF Algorithm Type is DF.
  DIIS enabled.
  MOM disabled.
  Fractional occupation disabled.
  Guess Type is READ.
  Energy threshold   = 1.00e-08
  Density threshold  = 1.00e-08
  Integral threshold = 1.00e-12

  ==> Primary Basis <==

  Basis Set: CC-PVTZ
    Blend: CC-PVTZ
    Number of shells: 20
    Number of basis functions: 60
    Number of Cartesian functions: 70
    Spherical Harmonics?: true
    Max angular momentum: 3

  ==> DFT Potential <==

   => LibXC <=

    Version 6.2.2
    S. Lehtola, C. Steigemann, M. J.T. Oliveira, and M. A.L. Marques.,  SoftwareX 7, 1–5 (2018) (10.1016/j.softx.2017.11.002)

   => Composite Functional: B3LYP <= 

    B3LYP Hyb-GGA Exchange-Correlation Functional

    P. J. Stephens, F. J. Devlin, C. F. Chabalowski, and M. J. Frisch.,  J. Phys. Chem. 98, 11623 (1994) (10.1021/j100096a001)

    Deriv               =              1
    GGA                 =           TRUE
    Meta                =          FALSE

    Exchange Hybrid     =           TRUE
    MP2 Hybrid          =          FALSE

   => Exchange Functionals <=

    0.0800   Slater exchange
    0.7200         Becke 88

   => Exact (HF) Exchange <=

    0.2000               HF 

   => Correlation Functionals <=

    0.1900   Vosko, Wilk & Nusair (VWN5_RPA)
    0.8100   Lee, Yang & Parr

   => LibXC Density Thresholds  <==

    XC_HYB_GGA_XC_B3LYP:  1.00E-15 

   => Molecular Quadrature <=

    Radial Scheme          =       TREUTLER
    Pruning Scheme         =           NONE
    Nuclear Scheme         =       TREUTLER

    Blocking Scheme        =         OCTREE
    BS radius alpha        =              1
    Pruning alpha          =              1
    Radial Points          =             75
    Spherical Points       =            302
    Total Points           =          42930
    Total Blocks           =            386
    Max Points             =            255
    Max Functions          =             60
    Weights Tolerance      =       1.00E-15

   => Loading Basis Set <=

    Name: (CC-PVTZ AUX)
    Role: JKFIT
    Keyword: DF_BASIS_SCF
    atoms 1 entry N          line   177 file /Users/joseantoniorodriguesromero/anaconda3/share/psi4/basis/cc-pvtz-jkfit.gbs 
    atoms 2 entry C          line   125 file /Users/joseantoniorodriguesromero/anaconda3/share/psi4/basis/cc-pvtz-jkfit.gbs 

   => Loading Basis Set <=

    Name: CC-PVTZ
    Role: ORBITAL
    Keyword: BASIS
    atoms 1 entry N          line   224 file /Users/joseantoniorodriguesromero/anaconda3/share/psi4/basis/cc-pvtz.gbs 
    atoms 2 entry C          line   186 file /Users/joseantoniorodriguesromero/anaconda3/share/psi4/basis/cc-pvtz.gbs 

  Reading orbitals from file /tmp/scan_CN_2.default.49254.180.npy, no projection.

  ==> Integral Setup <==

  DFHelper Memory: AOs need 0.005 GiB; user supplied 0.294 GiB. 
  Using in-core AOs.

  ==> MemDFJK: Density-Fitted J/K Matrices <==

    J tasked:                   Yes
    K tasked:                   Yes
    wK tasked:                   No
    OpenMP threads:               1
    Memory [MiB]:               301
    Algorithm:                 Core
    Schwarz Cutoff:           1E-12
    Mask sparsity (%):       0.0000
    Fitting Condition:        1E-10

   => Auxiliary Basis Set <=

  Basis Set: (CC-PVTZ AUX)
    Blend: CC-PVTZ-JKFIT
    Number of shells: 50
    Number of basis functions: 158
    Number of Cartesian functions: 192
    Spherical Harmonics?: true
    Max angular momentum: 4

  Cached 100.0% of DFT collocation blocks in 0.072 [GiB].

  Minimum eigenvalue in the overlap matrix is 1.0658884586E-03.
  Reciprocal condition number of the overlap matrix is 2.3933173591E-04.
    Using symmetric orthogonalization.

  ==> Pre-Iterations <==

  SCF Guess: Orbitals guess was supplied from a previous computation.

   -------------------------------------------------------
    Irrep   Nso     Nmo     Nalpha   Nbeta   Ndocc  Nsocc
   -------------------------------------------------------
     A1        26      26       5       5       5       0
     A2         6       6       0       0       0       0
     B1        14      14       1       1       1       0
     B2        14      14       1       1       1       0
   -------------------------------------------------------
    Total      60      60       7       7       7       0
   -------------------------------------------------------

  ==> Iterations <==

                           Total Energy        Delta E     RMS |[F,P]|

   @DF-UKS iter   0:   -85.17612036095285   -8.51761e+01   4.75372e-12 
   @DF-UKS iter   1:   -85.17612036095272    1.27898e-13   1.01202e-11 DIIS
  Energy and wave function converged.


  ==> Post-Iterations <==

   Electrons on quadrature grid:
      Nalpha   =    7.0000000379 ; deviation = 3.790e-08
      Nbeta    =    7.0000000379 ; deviation = 3.790e-08
      Ntotal   =   14.0000000758 ; deviation = 7.580e-08 

   @Spin Contamination Metric:   3.286260153E-14
   @S^2 Expected:                0.000000000E+00
   @S^2 Observed:                3.286260153E-14
   @S   Expected:                0.000000000E+00
   @S   Observed:                0.000000000E+00

    Orbital Energies [Eh]
    ---------------------

    Alpha Occupied:                                                       

       1A1   -15.207552     2A1   -10.990184     1B1    -0.819450  
       1B2    -0.819450     3A1    -0.662869     4A1    -0.060997  
       5A1     0.261229  

    Alpha Virtual:                                                        

       2B1     0.329510     2B2     0.329510     6A1     0.364931  
       7A1     0.483982     3B1     0.553130     3B2     0.553130  
       8A1     0.765664     1A2     0.842979     9A1     0.842979  
       4B1     0.891589     4B2     0.891589    10A1     1.169319  
      11A1     1.386994     5B1     1.433348     5B2     1.433348  
       6B1     1.503400     6B2     1.503400     2A2     1.555006  
      12A1     1.555006    13A1     1.783209    14A1     2.240159  
       7B1     2.489782     7B2     2.489782     8B2     2.821823  
       8B1     2.821823     3A2     2.962425    15A1     2.962425  
      16A1     3.166781     9B1     3.282697     9B2     3.282697  
       4A2     3.447863    17A1     3.447864    10B1     3.601717  
      10B2     3.601717    18A1     3.620166    19A1     4.642178  
      11B1     4.649871    11B2     4.649871    20A1     4.660605  
       5A2     4.660605    12B1     4.733218    12B2     4.733218  
      21A1     5.212851    22A1     5.481904    13B2     6.588245  
      13B1     6.588245    23A1     6.963130     6A2     6.963131  
      24A1     7.920397    14B1     8.770712    14B2     8.770712  
      25A1    11.087557    26A1    27.120831  

    Beta Occupied:                                                        

       1A1   -15.207552     2A1   -10.990184     1B1    -0.819450  
       1B2    -0.819450     3A1    -0.662869     4A1    -0.060997  
       5A1     0.261229  

    Beta Virtual:                                                         

       2B1     0.329510     2B2     0.329510     6A1     0.364931  
       7A1     0.483982     3B1     0.553130     3B2     0.553130  
       8A1     0.765664     1A2     0.842979     9A1     0.842979  
       4B1     0.891589     4B2     0.891589    10A1     1.169319  
      11A1     1.386994     5B1     1.433348     5B2     1.433348  
       6B1     1.503400     6B2     1.503400     2A2     1.555006  
      12A1     1.555006    13A1     1.783209    14A1     2.240159  
       7B1     2.489782     7B2     2.489782     8B2     2.821823  
       8B1     2.821823     3A2     2.962425    15A1     2.962425  
      16A1     3.166781     9B1     3.282697     9B2     3.282697  
       4A2     3.447863    17A1     3.447864    10B1     3.601717  
      10B2     3.601717    18A1     3.620166    19A1     4.642178  
      11B1     4.649871    11B2     4.649871    20A1     4.660605  
       5A2     4.660605    12B1     4.733218    12B2     4.733218  
      21A1     5.212851    22A1     5.481904    13B2     6.588245  
      13B1     6.588245    23A1     6.963130     6A2     6.963131  
      24A1     7.920397    14B1     8.770712    14B2     8.770712  
      25A1    11.087557    26A1    27.120831  

    Final Occupation by Irrep:
             A1    A2    B1    B2 
    DOCC [     5,    0,    1,    1 ]
    SOCC [     0,    0,    0,    0 ]
    NA   [     5,    0,    1,    1 ]
    NB   [     5,    0,    1,    1 ]

  @DF-UKS Final Energy:   -85.17612036095272

   => Energetics <=

    Nuclear Repulsion Energy =             50.8400573883942855
    One-Electron Energy =                -207.5260975870714049
    Two-Electron Energy =                  82.5351065215808575
    DFT Exchange-Correlation Energy =     -11.0251866838564681
    Empirical Dispersion Energy =           0.0000000000000000
    VV10 Nonlocal Energy =                  0.0000000000000000
    Total Energy =                        -85.1761203609527229

  UHF NO Occupations:
  HONO-2 :    4 A1 2.0000000
  HONO-1 :    5 A1 2.0000000
  HONO-0 :    1 B2 2.0000000
  LUNO+0 :    6 A1 0.0000000
  LUNO+1 :    7 A1 0.0000000
  LUNO+2 :    8 A1 0.0000000
  LUNO+3 :    9 A1 0.0000000


Computation Completed


Properties will be evaluated at   0.000000,   0.000000,   0.000000 [a0]

Properties computed using the B3LYP density matrix


 Multipole Moments:

 ------------------------------------------------------------------------------------
     Multipole            Electronic (a.u.)      Nuclear  (a.u.)        Total (a.u.)
 ------------------------------------------------------------------------------------

 L = 1.  Multiply by 2.5417464519 to convert [e a0] to [Debye]
 Dipole X            :          0.0000000            0.0000000            0.0000000
 Dipole Y            :          0.0000000            0.0000000            0.0000000
 Dipole Z            :         -0.0016224            0.0005860           -0.0010364
 Magnitude           :                                                    0.0010364

 L = 2.  Multiply by 1.3450342976 to convert [e a0^2] to [Debye ang]
 Quadrupole XX       :        -10.3673356            0.0000000          -10.3673356
 Quadrupole XY       :          0.0000000            0.0000000            0.0000000
 Quadrupole XZ       :          0.0000000            0.0000000            0.0000000
 Quadrupole YY       :        -10.3673356            0.0000000          -10.3673356
 Quadrupole YZ       :          0.0000000            0.0000000            0.0000000
 Quadrupole ZZ       :        -17.9945760            2.2049181          -15.7896579
 Traceless XX        :          2.5424135           -0.7349727            1.8074408
 Traceless YY        :          2.5424135           -0.7349727            1.8074408
 Traceless ZZ        :         -5.0848269            1.4699454           -3.6148815

 ------------------------------------------------------------------------------------
  ==> Computing MBIS Charges <==

  Electron Count from Grid (Expected Number): 14.00000 (14.00000)
  Difference: -0.00000

  MBIS Charges: (a.u.)
   Center  Symbol  Z      Pop.       Charge
      1       N    7    6.973172    0.026828
      2       C    6    7.026827   -1.026827

  MBIS Dipoles: [e a0]
   Center  Symbol  Z        X           Y           Z
      1       N    7   -0.000000    0.000000   -0.103232
      2       C    6   -0.000000    0.000000    0.569237

  MBIS Quadrupoles: [e a0^2]
   Center  Symbol  Z      XX        XY        XZ        YY        YZ        ZZ
      1       N    7   -2.4017    0.0000   -0.0000   -2.4017   -0.0000   -3.2180
      2       C    6   -7.9657    0.0000    0.0000   -7.9657    0.0000   -12.9575

  MBIS Octupoles: [e a0^3]
   Center  Symbol  Z      XXX       XXY       XXZ       XYY       XYZ       XZZ       YYY       YYZ       YZZ       ZZZ
      1       N    7    0.0000   -0.0000    0.2426   -0.0000   -0.0000    0.0000    0.0000    0.2426   -0.0000    1.1980
      2       C    6   -0.0000    0.0000    1.8262    0.0000   -0.0000    0.0000    0.0000    1.8262   -0.0000   10.9849

  MBIS Radial Moments:
   Center  Symbol  Z      [a0^2]      [a0^3]      [a0^4]      
      1       N    7    8.021359   14.143718   30.955425
      2       C    6   28.888838   97.763820   376.268857

  MBIS Valence Widths: [a0]
   Center  Symbol  Z     Width
      1       N    7    0.345919
      2       C    6    0.676192

*** tstop() called on Mac.lan at Sun Aug 10 17:40:07 2025
Module time:
	user time   =       4.25 seconds =       0.07 minutes
	system time =       3.29 seconds =       0.05 minutes
	total time  =          1 seconds =       0.02 minutes
Total time:
	user time   =      20.31 seconds =       0.34 minutes
	system time =       5.40 seconds =       0.09 minutes
	total time  =          2 seconds =       0.03 minutes

    Psi4 stopped on: Sunday, 10 August 2025 05:40PM
    Psi4 wall time for execution: 0:00:02.57

*** Psi4 exiting successfully. Buy a developer a beer!
