
    -----------------------------------------------------------------------
          Psi4: An Open-Source Ab Initio Electronic Structure Package
                               Psi4 1.9.1 release

                         Git: Rev {} zzzzzzz 


    D. G. A. Smith, L. A. Burns, A. C. Simmonett, R. M. Parrish,
    M. C. Schieber, R. Galvelis, P. Kraus, H. Kruse, R. Di Remigio,
    A. Alenaizan, A. M. James, S. Lehtola, J. P. Misiewicz, M. Scheurer,
    R. A. Shaw, J. B. Schriber, Y. Xie, Z. L. Glick, D. A. Sirianni,
    J. S. O'Brien, J. M. Waldrop, A. Kumar, E. G. Hohenstein,
    B. P. Pritchard, B. R. Brooks, H. F. Schaefer III, A. Yu. Sokolov,
    K. Patkowski, A. E. DePrince III, U. Bozkaya, R. A. King,
    F. A. Evangelista, J. M. Turney, T. D. Crawford, C. D. Sherrill,
    J. Chem. Phys. 152(18) 184108 (2020). https://doi.org/10.1063/5.0006002

                            Additional Code Authors
    E. T. Seidl, C. L. Janssen, E. F. Valeev, M. L. Leininger,
    J. F. Gonthier, R. M. Richard, H. R. McAlexander, M. Saitow, X. Wang,
    P. Verma, M. H. Lechner, A. Jiang, S. Behnle, A. G. Heide,
    M. F. Herbst, and D. L. Poole

             Previous Authors, Complete List of Code Contributors,
                       and Citations for Specific Modules
    https://github.com/psi4/psi4/blob/master/codemeta.json
    https://github.com/psi4/psi4/graphs/contributors
    http://psicode.org/psi4manual/master/introduction.html#citing-psifour

    -----------------------------------------------------------------------


    Psi4 started on: Sunday, 10 August 2025 05:29PM

    Process ID: 48920
    Host:       Mac.lan
    PSIDATADIR: /Users/joseantoniorodriguesromero/anaconda3/share/psi4
    Memory:     500.0 MiB
    Threads:    1
    
  ==> Input File <==

--------------------------------------------------------------------------
molecule { 
-1 2
C           0.000000           0.000000           0.000000
C           0.000000           0.000000           0.911615
}

set { 
basis              cc-pvtz
reference          uks
maxiter            500
DAMPING_PERCENTAGE 1
E_CONVERGENCE      1.0E-8
D_CONVERGENCE      1.0E-8
DIIS_MAX_VECS      400
MBIS_MAXITER       8000
guess              read
}

E, wfn = energy('b3lyp', restart_file='last_wfn', return_wfn=True)
properties('b3lyp','MBIS_CHARGES', wfn=wfn)
wfn.to_file('last_wfn')
--------------------------------------------------------------------------

Scratch directory: /tmp/
 Found user provided orbital data. Setting orbital guess to READ 
 Copying restart file <last_wfn.npy> to </tmp/scan_CC_17.default.48920.180.npy> for internal processing
   => Libint2 <=

    Primary   basis highest AM E, G, H:  6, 6, 3
    Auxiliary basis highest AM E, G, H:  7, 7, 4
    Onebody   basis highest AM E, G, H:  -, -, -
    Solid Harmonics ordering:            Gaussian

*** tstart() called on Mac.lan
*** at Sun Aug 10 17:29:49 2025

   => Loading Basis Set <=

    Name: CC-PVTZ
    Role: ORBITAL
    Keyword: BASIS
    atoms 1-2 entry C          line   186 file /Users/joseantoniorodriguesromero/anaconda3/share/psi4/basis/cc-pvtz.gbs 


         ---------------------------------------------------------
                                   SCF
               by Justin Turney, Rob Parrish, Andy Simmonett
                          and Daniel G. A. Smith
                              UKS Reference
                        1 Threads,    500 MiB Core
         ---------------------------------------------------------

  ==> Geometry <==

    Molecular point group: d2h
    Full point group: D_inf_h

    Geometry (in Angstrom), charge = -1, multiplicity = 2:

       Center              X                  Y                   Z               Mass       
    ------------   -----------------  -----------------  -----------------  -----------------
         C            0.000000000000     0.000000000000    -0.455807500000    12.000000000000
         C            0.000000000000     0.000000000000     0.455807500000    12.000000000000

  Running in d2h symmetry.

  Rotational constants: A = ************  B =      3.38082  C =      3.38082 [cm^-1]
  Rotational constants: A = ************  B = 101354.49726  C = 101354.49726 [MHz]
  Nuclear repulsion =   20.897395922752484

  Charge       = -1
  Multiplicity = 2
  Electrons    = 13
  Nalpha       = 7
  Nbeta        = 6

  ==> Algorithm <==

  SCF Algorithm Type is DF.
  DIIS enabled.
  MOM disabled.
  Fractional occupation disabled.
  Guess Type is READ.
  Energy threshold   = 1.00e-08
  Density threshold  = 1.00e-08
  Integral threshold = 1.00e-12

  ==> Primary Basis <==

  Basis Set: CC-PVTZ
    Blend: CC-PVTZ
    Number of shells: 20
    Number of basis functions: 60
    Number of Cartesian functions: 70
    Spherical Harmonics?: true
    Max angular momentum: 3

  ==> DFT Potential <==

   => LibXC <=

    Version 6.2.2
    S. Lehtola, C. Steigemann, M. J.T. Oliveira, and M. A.L. Marques.,  SoftwareX 7, 1–5 (2018) (10.1016/j.softx.2017.11.002)

   => Composite Functional: B3LYP <= 

    B3LYP Hyb-GGA Exchange-Correlation Functional

    P. J. Stephens, F. J. Devlin, C. F. Chabalowski, and M. J. Frisch.,  J. Phys. Chem. 98, 11623 (1994) (10.1021/j100096a001)

    Deriv               =              1
    GGA                 =           TRUE
    Meta                =          FALSE

    Exchange Hybrid     =           TRUE
    MP2 Hybrid          =          FALSE

   => Exchange Functionals <=

    0.0800   Slater exchange
    0.7200         Becke 88

   => Exact (HF) Exchange <=

    0.2000               HF 

   => Correlation Functionals <=

    0.1900   Vosko, Wilk & Nusair (VWN5_RPA)
    0.8100   Lee, Yang & Parr

   => LibXC Density Thresholds  <==

    XC_HYB_GGA_XC_B3LYP:  1.00E-15 

   => Molecular Quadrature <=

    Radial Scheme          =       TREUTLER
    Pruning Scheme         =           NONE
    Nuclear Scheme         =       TREUTLER

    Blocking Scheme        =         OCTREE
    BS radius alpha        =              1
    Pruning alpha          =              1
    Radial Points          =             75
    Spherical Points       =            302
    Total Points           =          42966
    Total Blocks           =            386
    Max Points             =            254
    Max Functions          =             60
    Weights Tolerance      =       1.00E-15

   => Loading Basis Set <=

    Name: (CC-PVTZ AUX)
    Role: JKFIT
    Keyword: DF_BASIS_SCF
    atoms 1-2 entry C          line   125 file /Users/joseantoniorodriguesromero/anaconda3/share/psi4/basis/cc-pvtz-jkfit.gbs 

   => Loading Basis Set <=

    Name: CC-PVTZ
    Role: ORBITAL
    Keyword: BASIS
    atoms 1-2 entry C          line   186 file /Users/joseantoniorodriguesromero/anaconda3/share/psi4/basis/cc-pvtz.gbs 

  Reading orbitals from file /tmp/scan_CC_17.default.48920.180.npy, no projection.

  ==> Integral Setup <==

  DFHelper Memory: AOs need 0.005 GiB; user supplied 0.293 GiB. 
  Using in-core AOs.

  ==> MemDFJK: Density-Fitted J/K Matrices <==

    J tasked:                   Yes
    K tasked:                   Yes
    wK tasked:                   No
    OpenMP threads:               1
    Memory [MiB]:               300
    Algorithm:                 Core
    Schwarz Cutoff:           1E-12
    Mask sparsity (%):       0.0000
    Fitting Condition:        1E-10

   => Auxiliary Basis Set <=

  Basis Set: (CC-PVTZ AUX)
    Blend: CC-PVTZ-JKFIT
    Number of shells: 50
    Number of basis functions: 158
    Number of Cartesian functions: 192
    Spherical Harmonics?: true
    Max angular momentum: 4

  Cached 100.0% of DFT collocation blocks in 0.073 [GiB].

  Minimum eigenvalue in the overlap matrix is 1.0927070604E-03.
  Reciprocal condition number of the overlap matrix is 2.6704556773E-04.
    Using symmetric orthogonalization.

  ==> Pre-Iterations <==

  SCF Guess: Orbitals guess was supplied from a previous computation.

   -------------------------------------------------------
    Irrep   Nso     Nmo     Nalpha   Nbeta   Ndocc  Nsocc
   -------------------------------------------------------
     Ag        13      13       3       2       2       1
     B1g        3       3       0       0       0       0
     B2g        7       7       0       0       0       0
     B3g        7       7       0       0       0       0
     Au         3       3       0       0       0       0
     B1u       13      13       2       2       2       0
     B2u        7       7       1       1       1       0
     B3u        7       7       1       1       1       0
   -------------------------------------------------------
    Total      60      60       7       6       6       1
   -------------------------------------------------------

  ==> Iterations <==

                           Total Energy        Delta E     RMS |[F,P]|

   @DF-UKS iter   0:   -75.68221710212829   -7.56822e+01   6.43586e-03 
   @DF-UKS iter   1:   -75.70267228248620   -2.04552e-02   9.36361e-04 DIIS/ADIIS
   @DF-UKS iter   2:   -75.70271861756450   -4.63351e-05   1.11783e-03 DIIS/ADIIS/DAMP=1%
   @DF-UKS iter   3:   -75.70393956582620   -1.22095e-03   7.75262e-05 DIIS/DAMP=1%
   @DF-UKS iter   4:   -75.70312462022252    8.14946e-04   1.49705e-05 DIIS/DAMP=1%
   @DF-UKS iter   5:   -75.70309905960342    2.55606e-05   1.80175e-06 DIIS/DAMP=1%
   @DF-UKS iter   6:   -75.70308953981203    9.51979e-06   4.10926e-07 DIIS/DAMP=1%
   @DF-UKS iter   7:   -75.70308839730480    1.14251e-06   1.77549e-08 DIIS/DAMP=1%
   @DF-UKS iter   8:   -75.70308868017607   -2.82871e-07   2.66341e-09 DIIS/DAMP=1%
   @DF-UKS iter   9:   -75.70308867825295    1.92311e-09   3.84340e-10 DIIS/DAMP=1%
  Energy and wave function converged.


  ==> Post-Iterations <==

   Electrons on quadrature grid:
      Nalpha   =    7.0000002503 ; deviation = 2.503e-07
      Nbeta    =    6.0000002539 ; deviation = 2.539e-07
      Ntotal   =   13.0000005042 ; deviation = 5.042e-07 

   @Spin Contamination Metric:   3.929097830E-03
   @S^2 Expected:                7.500000000E-01
   @S^2 Observed:                7.539290978E-01
   @S   Expected:                5.000000000E-01
   @S   Observed:                5.000000000E-01

    Orbital Energies [Eh]
    ---------------------

    Alpha Occupied:                                                       

       1Ag    -9.838568     1B1u   -9.808380     2Ag    -0.506947  
       1B3u   -0.071747     1B2u   -0.071747     2B1u   -0.041815  
       3Ag    -0.019581  

    Alpha Virtual:                                                        

       1B3g    0.384563     1B2g    0.384563     3B1u    0.404212  
       4Ag     0.484130     2B3u    0.500333     2B2u    0.500333  
       5Ag     0.660272     2B3g    0.721131     2B2g    0.721131  
       4B1u    0.879256     6Ag     0.883202     1B1g    0.883202  
       3B2u    1.181421     3B3u    1.181421     5B1u    1.207920  
       1Au     1.235265     6B1u    1.235265     7Ag     1.359892  
       3B3g    1.443865     3B2g    1.443865     4B2u    2.140215  
       4B3u    2.140215     7B1u    2.415371     8Ag     2.562558  
       4B3g    2.724127     4B2g    2.724127     5B3u    2.776437  
       5B2u    2.776437     8B1u    2.811370     9Ag     2.833440  
       2B1g    2.833441     6B3u    3.047297     6B2u    3.047297  
      10Ag     3.196530     2Au     3.299139     9B1u    3.299139  
       5B3g    3.334517     5B2g    3.334517     3B1g    3.408245  
      11Ag     3.408245     6B2g    3.415917     6B3g    3.415917  
      12Ag     3.791413    10B1u    3.940209     7B3u    4.268519  
       7B2u    4.268519    11B1u    4.467715     3Au     4.467716  
      12B1u    5.590516     7B3g    5.699029     7B2g    5.699029  
      13Ag     6.531732    13B1u   18.951277  

    Beta Occupied:                                                        

       1Ag    -9.827342     1B1u   -9.798402     2Ag    -0.471195  
       1B3u   -0.061434     1B2u   -0.061434     2B1u    0.020491  

    Beta Virtual:                                                         

       3Ag     0.115557     1B3g    0.396062     1B2g    0.396062  
       3B1u    0.416626     4Ag     0.504931     2B3u    0.505594  
       2B2u    0.505594     5Ag     0.685612     2B3g    0.734461  
       2B2g    0.734461     6Ag     0.886189     1B1g    0.886189  
       4B1u    0.900338     3B2u    1.204518     3B3u    1.204518  
       5B1u    1.231433     1Au     1.243545     6B1u    1.243545  
       7Ag     1.394348     3B3g    1.459162     3B2g    1.459162  
       4B2u    2.150308     4B3u    2.150308     7B1u    2.470137  
       8Ag     2.591541     4B3g    2.733547     4B2g    2.733547  
       5B3u    2.777931     5B2u    2.777931     8B1u    2.830316  
       9Ag     2.838958     2B1g    2.838958     6B3u    3.091732  
       6B2u    3.091732    10Ag     3.252725     2Au     3.318761  
       9B1u    3.318761     5B3g    3.373595     5B2g    3.373595  
       6B2g    3.421059     6B3g    3.421059     3B1g    3.428079  
      11Ag     3.428079    12Ag     3.822872    10B1u    3.981142  
       7B3u    4.298088     7B2u    4.298088    11B1u    4.478072  
       3Au     4.478073    12B1u    5.636393     7B3g    5.728591  
       7B2g    5.728591    13Ag     6.556234    13B1u   18.968619  

    Final Occupation by Irrep:
             Ag   B1g   B2g   B3g    Au   B1u   B2u   B3u 
    DOCC [     2,    0,    0,    0,    0,    2,    1,    1 ]
    SOCC [     1,    0,    0,    0,    0,    0,    0,    0 ]
    NA   [     3,    0,    0,    0,    0,    2,    1,    1 ]
    NB   [     2,    0,    0,    0,    0,    2,    1,    1 ]

  @DF-UKS Final Energy:   -75.70308867825295

   => Energetics <=

    Nuclear Repulsion Energy =             20.8973959227524837
    One-Electron Energy =                -146.0729935396969381
    Two-Electron Energy =                  58.5992680927790559
    DFT Exchange-Correlation Energy =      -9.1267591540875497
    Empirical Dispersion Energy =           0.0000000000000000
    VV10 Nonlocal Energy =                  0.0000000000000000
    Total Energy =                        -75.7030886782529535

  UHF NO Occupations:
  HONO-2 :    2 Ag 1.9997299
  HONO-1 :    2B1u 1.9984256
  HONO-0 :    3 Ag 1.0000000
  LUNO+0 :    3B1u 0.0015744
  LUNO+1 :    4 Ag 0.0002701
  LUNO+2 :    2B3u 0.0000603
  LUNO+3 :    2B2u 0.0000603


Computation Completed


Properties will be evaluated at   0.000000,   0.000000,   0.000000 [a0]

Properties computed using the SCF density matrix


 Multipole Moments:

 ------------------------------------------------------------------------------------
     Multipole            Electronic (a.u.)      Nuclear  (a.u.)        Total (a.u.)
 ------------------------------------------------------------------------------------

 L = 1.  Multiply by 2.5417464519 to convert [e a0] to [Debye]
 Dipole X            :          0.0000000            0.0000000            0.0000000
 Dipole Y            :          0.0000000            0.0000000            0.0000000
 Dipole Z            :          0.0000000           -0.0000000           -0.0000000
 Magnitude           :                                                    0.0000000

 ------------------------------------------------------------------------------------

*** tstop() called on Mac.lan at Sun Aug 10 17:29:50 2025
Module time:
	user time   =      12.13 seconds =       0.20 minutes
	system time =       2.28 seconds =       0.04 minutes
	total time  =          1 seconds =       0.02 minutes
Total time:
	user time   =      12.13 seconds =       0.20 minutes
	system time =       2.28 seconds =       0.04 minutes
	total time  =          1 seconds =       0.02 minutes

*** tstart() called on Mac.lan
*** at Sun Aug 10 17:29:50 2025

   => Libint2 <=

    Primary   basis highest AM E, G, H:  6, 6, 3
    Auxiliary basis highest AM E, G, H:  7, 7, 4
    Onebody   basis highest AM E, G, H:  -, -, -
    Solid Harmonics ordering:            Gaussian
   => Loading Basis Set <=

    Name: CC-PVTZ
    Role: ORBITAL
    Keyword: BASIS
    atoms 1-2 entry C          line   186 file /Users/joseantoniorodriguesromero/anaconda3/share/psi4/basis/cc-pvtz.gbs 


         ---------------------------------------------------------
                                   SCF
               by Justin Turney, Rob Parrish, Andy Simmonett
                          and Daniel G. A. Smith
                              UKS Reference
                        1 Threads,    500 MiB Core
         ---------------------------------------------------------

  ==> Geometry <==

    Molecular point group: d2h
    Full point group: D_inf_h

    Geometry (in Angstrom), charge = -1, multiplicity = 2:

       Center              X                  Y                   Z               Mass       
    ------------   -----------------  -----------------  -----------------  -----------------
         C            0.000000000000     0.000000000000    -0.455807500000    12.000000000000
         C            0.000000000000     0.000000000000     0.455807500000    12.000000000000

  Running in d2h symmetry.

  Rotational constants: A = ************  B =      3.38082  C =      3.38082 [cm^-1]
  Rotational constants: A = ************  B = 101354.49726  C = 101354.49726 [MHz]
  Nuclear repulsion =   20.897395922752484

  Charge       = -1
  Multiplicity = 2
  Electrons    = 13
  Nalpha       = 7
  Nbeta        = 6

  ==> Algorithm <==

  SCF Algorithm Type is DF.
  DIIS enabled.
  MOM disabled.
  Fractional occupation disabled.
  Guess Type is READ.
  Energy threshold   = 1.00e-08
  Density threshold  = 1.00e-08
  Integral threshold = 1.00e-12

  ==> Primary Basis <==

  Basis Set: CC-PVTZ
    Blend: CC-PVTZ
    Number of shells: 20
    Number of basis functions: 60
    Number of Cartesian functions: 70
    Spherical Harmonics?: true
    Max angular momentum: 3

  ==> DFT Potential <==

   => LibXC <=

    Version 6.2.2
    S. Lehtola, C. Steigemann, M. J.T. Oliveira, and M. A.L. Marques.,  SoftwareX 7, 1–5 (2018) (10.1016/j.softx.2017.11.002)

   => Composite Functional: B3LYP <= 

    B3LYP Hyb-GGA Exchange-Correlation Functional

    P. J. Stephens, F. J. Devlin, C. F. Chabalowski, and M. J. Frisch.,  J. Phys. Chem. 98, 11623 (1994) (10.1021/j100096a001)

    Deriv               =              1
    GGA                 =           TRUE
    Meta                =          FALSE

    Exchange Hybrid     =           TRUE
    MP2 Hybrid          =          FALSE

   => Exchange Functionals <=

    0.0800   Slater exchange
    0.7200         Becke 88

   => Exact (HF) Exchange <=

    0.2000               HF 

   => Correlation Functionals <=

    0.1900   Vosko, Wilk & Nusair (VWN5_RPA)
    0.8100   Lee, Yang & Parr

   => LibXC Density Thresholds  <==

    XC_HYB_GGA_XC_B3LYP:  1.00E-15 

   => Molecular Quadrature <=

    Radial Scheme          =       TREUTLER
    Pruning Scheme         =           NONE
    Nuclear Scheme         =       TREUTLER

    Blocking Scheme        =         OCTREE
    BS radius alpha        =              1
    Pruning alpha          =              1
    Radial Points          =             75
    Spherical Points       =            302
    Total Points           =          42966
    Total Blocks           =            386
    Max Points             =            254
    Max Functions          =             60
    Weights Tolerance      =       1.00E-15

   => Loading Basis Set <=

    Name: (CC-PVTZ AUX)
    Role: JKFIT
    Keyword: DF_BASIS_SCF
    atoms 1-2 entry C          line   125 file /Users/joseantoniorodriguesromero/anaconda3/share/psi4/basis/cc-pvtz-jkfit.gbs 

   => Loading Basis Set <=

    Name: CC-PVTZ
    Role: ORBITAL
    Keyword: BASIS
    atoms 1-2 entry C          line   186 file /Users/joseantoniorodriguesromero/anaconda3/share/psi4/basis/cc-pvtz.gbs 

  Reading orbitals from file /tmp/scan_CC_17.default.48920.180.npy, no projection.

  ==> Integral Setup <==

  DFHelper Memory: AOs need 0.005 GiB; user supplied 0.293 GiB. 
  Using in-core AOs.

  ==> MemDFJK: Density-Fitted J/K Matrices <==

    J tasked:                   Yes
    K tasked:                   Yes
    wK tasked:                   No
    OpenMP threads:               1
    Memory [MiB]:               300
    Algorithm:                 Core
    Schwarz Cutoff:           1E-12
    Mask sparsity (%):       0.0000
    Fitting Condition:        1E-10

   => Auxiliary Basis Set <=

  Basis Set: (CC-PVTZ AUX)
    Blend: CC-PVTZ-JKFIT
    Number of shells: 50
    Number of basis functions: 158
    Number of Cartesian functions: 192
    Spherical Harmonics?: true
    Max angular momentum: 4

  Cached 100.0% of DFT collocation blocks in 0.073 [GiB].

  Minimum eigenvalue in the overlap matrix is 1.0927070604E-03.
  Reciprocal condition number of the overlap matrix is 2.6704556773E-04.
    Using symmetric orthogonalization.

  ==> Pre-Iterations <==

  SCF Guess: Orbitals guess was supplied from a previous computation.

   -------------------------------------------------------
    Irrep   Nso     Nmo     Nalpha   Nbeta   Ndocc  Nsocc
   -------------------------------------------------------
     Ag        13      13       3       2       2       1
     B1g        3       3       0       0       0       0
     B2g        7       7       0       0       0       0
     B3g        7       7       0       0       0       0
     Au         3       3       0       0       0       0
     B1u       13      13       2       2       2       0
     B2u        7       7       1       1       1       0
     B3u        7       7       1       1       1       0
   -------------------------------------------------------
    Total      60      60       7       6       6       1
   -------------------------------------------------------

  ==> Iterations <==

                           Total Energy        Delta E     RMS |[F,P]|

   @DF-UKS iter   0:   -75.70308867990153   -7.57031e+01   3.42189e-11 
   @DF-UKS iter   1:   -75.70308867990150    2.84217e-14   9.43294e-12 DIIS
  Energy and wave function converged.


  ==> Post-Iterations <==

   Electrons on quadrature grid:
      Nalpha   =    7.0000002503 ; deviation = 2.503e-07
      Nbeta    =    6.0000002539 ; deviation = 2.539e-07
      Ntotal   =   13.0000005042 ; deviation = 5.042e-07 

   @Spin Contamination Metric:   3.929097975E-03
   @S^2 Expected:                7.500000000E-01
   @S^2 Observed:                7.539290980E-01
   @S   Expected:                5.000000000E-01
   @S   Observed:                5.000000000E-01

    Orbital Energies [Eh]
    ---------------------

    Alpha Occupied:                                                       

       1Ag    -9.838568     1B1u   -9.808380     2Ag    -0.506947  
       1B3u   -0.071747     1B2u   -0.071747     2B1u   -0.041815  
       3Ag    -0.019581  

    Alpha Virtual:                                                        

       1B3g    0.384563     1B2g    0.384563     3B1u    0.404212  
       4Ag     0.484130     2B3u    0.500333     2B2u    0.500333  
       5Ag     0.660272     2B3g    0.721131     2B2g    0.721131  
       4B1u    0.879256     6Ag     0.883202     1B1g    0.883202  
       3B2u    1.181421     3B3u    1.181421     5B1u    1.207920  
       1Au     1.235265     6B1u    1.235265     7Ag     1.359892  
       3B3g    1.443865     3B2g    1.443865     4B2u    2.140215  
       4B3u    2.140215     7B1u    2.415371     8Ag     2.562558  
       4B3g    2.724127     4B2g    2.724127     5B3u    2.776437  
       5B2u    2.776437     8B1u    2.811370     9Ag     2.833440  
       2B1g    2.833441     6B3u    3.047297     6B2u    3.047297  
      10Ag     3.196530     2Au     3.299139     9B1u    3.299139  
       5B3g    3.334517     5B2g    3.334517     3B1g    3.408245  
      11Ag     3.408245     6B2g    3.415917     6B3g    3.415917  
      12Ag     3.791413    10B1u    3.940209     7B3u    4.268519  
       7B2u    4.268519    11B1u    4.467715     3Au     4.467716  
      12B1u    5.590516     7B3g    5.699029     7B2g    5.699029  
      13Ag     6.531732    13B1u   18.951277  

    Beta Occupied:                                                        

       1Ag    -9.827342     1B1u   -9.798402     2Ag    -0.471195  
       1B3u   -0.061434     1B2u   -0.061434     2B1u    0.020491  

    Beta Virtual:                                                         

       3Ag     0.115557     1B3g    0.396062     1B2g    0.396062  
       3B1u    0.416626     4Ag     0.504931     2B3u    0.505594  
       2B2u    0.505594     5Ag     0.685612     2B3g    0.734461  
       2B2g    0.734461     6Ag     0.886189     1B1g    0.886189  
       4B1u    0.900338     3B2u    1.204518     3B3u    1.204518  
       5B1u    1.231433     1Au     1.243545     6B1u    1.243545  
       7Ag     1.394348     3B3g    1.459162     3B2g    1.459162  
       4B2u    2.150308     4B3u    2.150308     7B1u    2.470137  
       8Ag     2.591541     4B3g    2.733547     4B2g    2.733547  
       5B3u    2.777931     5B2u    2.777931     8B1u    2.830316  
       9Ag     2.838958     2B1g    2.838958     6B3u    3.091732  
       6B2u    3.091732    10Ag     3.252725     2Au     3.318761  
       9B1u    3.318761     5B3g    3.373595     5B2g    3.373595  
       6B2g    3.421059     6B3g    3.421059     3B1g    3.428079  
      11Ag     3.428079    12Ag     3.822872    10B1u    3.981142  
       7B3u    4.298088     7B2u    4.298088    11B1u    4.478072  
       3Au     4.478073    12B1u    5.636393     7B3g    5.728591  
       7B2g    5.728591    13Ag     6.556234    13B1u   18.968619  

    Final Occupation by Irrep:
             Ag   B1g   B2g   B3g    Au   B1u   B2u   B3u 
    DOCC [     2,    0,    0,    0,    0,    2,    1,    1 ]
    SOCC [     1,    0,    0,    0,    0,    0,    0,    0 ]
    NA   [     3,    0,    0,    0,    0,    2,    1,    1 ]
    NB   [     2,    0,    0,    0,    0,    2,    1,    1 ]

  @DF-UKS Final Energy:   -75.70308867990150

   => Energetics <=

    Nuclear Repulsion Energy =             20.8973959227524837
    One-Electron Energy =                -146.0729935014650778
    Two-Electron Energy =                  58.5992680491017239
    DFT Exchange-Correlation Energy =      -9.1267591502906207
    Empirical Dispersion Energy =           0.0000000000000000
    VV10 Nonlocal Energy =                  0.0000000000000000
    Total Energy =                        -75.7030886799014979

  UHF NO Occupations:
  HONO-2 :    2 Ag 1.9997299
  HONO-1 :    2B1u 1.9984256
  HONO-0 :    3 Ag 1.0000000
  LUNO+0 :    3B1u 0.0015744
  LUNO+1 :    4 Ag 0.0002701
  LUNO+2 :    2B3u 0.0000603
  LUNO+3 :    2B2u 0.0000603


Computation Completed


Properties will be evaluated at   0.000000,   0.000000,   0.000000 [a0]

Properties computed using the B3LYP density matrix


 Multipole Moments:

 ------------------------------------------------------------------------------------
     Multipole            Electronic (a.u.)      Nuclear  (a.u.)        Total (a.u.)
 ------------------------------------------------------------------------------------

 L = 1.  Multiply by 2.5417464519 to convert [e a0] to [Debye]
 Dipole X            :          0.0000000            0.0000000            0.0000000
 Dipole Y            :          0.0000000            0.0000000            0.0000000
 Dipole Z            :          0.0000000           -0.0000000           -0.0000000
 Magnitude           :                                                    0.0000000

 L = 2.  Multiply by 1.3450342976 to convert [e a0^2] to [Debye ang]
 Quadrupole XX       :        -10.1708222            0.0000000          -10.1708222
 Quadrupole XY       :          0.0000000            0.0000000            0.0000000
 Quadrupole XZ       :          0.0000000            0.0000000            0.0000000
 Quadrupole YY       :        -10.1708222            0.0000000          -10.1708222
 Quadrupole YZ       :          0.0000000            0.0000000            0.0000000
 Quadrupole ZZ       :        -22.1312422            8.9031136          -13.2281286
 Traceless XX        :          3.9868067           -2.9677045            1.0191021
 Traceless YY        :          3.9868067           -2.9677045            1.0191021
 Traceless ZZ        :         -7.9736133            5.9354091           -2.0382042

 ------------------------------------------------------------------------------------
  ==> Computing MBIS Charges <==

  Electron Count from Grid (Expected Number): 13.00000 (13.00000)
  Difference:  0.00000

  MBIS Charges: (a.u.)
   Center  Symbol  Z      Pop.       Charge
      1       C    6    6.500000   -0.500000
      2       C    6    6.500000   -0.500000

  MBIS Dipoles: [e a0]
   Center  Symbol  Z        X           Y           Z
      1       C    6   -0.000000    0.000000    0.070560
      2       C    6   -0.000000    0.000000   -0.070560

  MBIS Quadrupoles: [e a0^2]
   Center  Symbol  Z      XX        XY        XZ        YY        YZ        ZZ
      1       C    6   -5.0854    0.0000    0.0000   -5.0854   -0.0000   -6.1215
      2       C    6   -5.0854    0.0000   -0.0000   -5.0854    0.0000   -6.1215

  MBIS Octupoles: [e a0^3]
   Center  Symbol  Z      XXX       XXY       XXZ       XYY       XYZ       XZZ       YYY       YYZ       YZZ       ZZZ
      1       C    6   -0.0000   -0.0000    0.4167   -0.0000    0.0000   -0.0000    0.0000    0.4167    0.0000    1.6971
      2       C    6   -0.0000   -0.0000   -0.4167   -0.0000   -0.0000   -0.0000    0.0000   -0.4167    0.0000   -1.6971

  MBIS Radial Moments:
   Center  Symbol  Z      [a0^2]      [a0^3]      [a0^4]      
      1       C    6   16.292369   42.722978   134.469517
      2       C    6   16.292369   42.722978   134.469517

  MBIS Valence Widths: [a0]
   Center  Symbol  Z     Width
      1       C    6    0.530533
      2       C    6    0.530533

*** tstop() called on Mac.lan at Sun Aug 10 17:29:51 2025
Module time:
	user time   =       3.52 seconds =       0.06 minutes
	system time =       2.17 seconds =       0.04 minutes
	total time  =          1 seconds =       0.02 minutes
Total time:
	user time   =      15.75 seconds =       0.26 minutes
	system time =       4.57 seconds =       0.08 minutes
	total time  =          2 seconds =       0.03 minutes

    Psi4 stopped on: Sunday, 10 August 2025 05:29PM
    Psi4 wall time for execution: 0:00:01.98

*** Psi4 exiting successfully. Buy a developer a beer!
