
    -----------------------------------------------------------------------
          Psi4: An Open-Source Ab Initio Electronic Structure Package
                               Psi4 1.9.1 release

                         Git: Rev {} zzzzzzz 


    D. G. A. Smith, L. A. Burns, A. C. Simmonett, R. M. Parrish,
    M. C. Schieber, R. Galvelis, P. Kraus, H. Kruse, R. Di Remigio,
    A. Alenaizan, A. M. James, S. Lehtola, J. P. Misiewicz, M. Scheurer,
    R. A. Shaw, J. B. Schriber, Y. Xie, Z. L. Glick, D. A. Sirianni,
    J. S. O'Brien, J. M. Waldrop, A. Kumar, E. G. Hohenstein,
    B. P. Pritchard, B. R. Brooks, H. F. Schaefer III, A. Yu. Sokolov,
    K. Patkowski, A. E. DePrince III, U. Bozkaya, R. A. King,
    F. A. Evangelista, J. M. Turney, T. D. Crawford, C. D. Sherrill,
    J. Chem. Phys. 152(18) 184108 (2020). https://doi.org/10.1063/5.0006002

                            Additional Code Authors
    E. T. Seidl, C. L. Janssen, E. F. Valeev, M. L. Leininger,
    J. F. Gonthier, R. M. Richard, H. R. McAlexander, M. Saitow, X. Wang,
    P. Verma, M. H. Lechner, A. Jiang, S. Behnle, A. G. Heide,
    M. F. Herbst, and D. L. Poole

             Previous Authors, Complete List of Code Contributors,
                       and Citations for Specific Modules
    https://github.com/psi4/psi4/blob/master/codemeta.json
    https://github.com/psi4/psi4/graphs/contributors
    http://psicode.org/psi4manual/master/introduction.html#citing-psifour

    -----------------------------------------------------------------------


    Psi4 started on: Sunday, 10 August 2025 05:43PM

    Process ID: 49358
    Host:       Mac.lan
    PSIDATADIR: /Users/joseantoniorodriguesromero/anaconda3/share/psi4
    Memory:     500.0 MiB
    Threads:    1
    
  ==> Input File <==

--------------------------------------------------------------------------
molecule { 
-1 2
O           0.000000           0.000000           0.000000
C           0.000000           0.000000           1.776435
}

set { 
basis              cc-pvtz
reference          uks
maxiter            500
DAMPING_PERCENTAGE 1
E_CONVERGENCE      1.0E-8
D_CONVERGENCE      1.0E-8
DIIS_MAX_VECS      400
MBIS_MAXITER       8000
guess              read
}

E, wfn = energy('b3lyp', restart_file='last_wfn', return_wfn=True)
properties('b3lyp','MBIS_CHARGES', wfn=wfn)
wfn.to_file('last_wfn')
--------------------------------------------------------------------------

Scratch directory: /tmp/
 Found user provided orbital data. Setting orbital guess to READ 
 Copying restart file <last_wfn.npy> to </tmp/scan_CO_48.default.49358.180.npy> for internal processing
   => Libint2 <=

    Primary   basis highest AM E, G, H:  6, 6, 3
    Auxiliary basis highest AM E, G, H:  7, 7, 4
    Onebody   basis highest AM E, G, H:  -, -, -
    Solid Harmonics ordering:            Gaussian

*** tstart() called on Mac.lan
*** at Sun Aug 10 17:43:56 2025

   => Loading Basis Set <=

    Name: CC-PVTZ
    Role: ORBITAL
    Keyword: BASIS
    atoms 1 entry O          line   262 file /Users/joseantoniorodriguesromero/anaconda3/share/psi4/basis/cc-pvtz.gbs 
    atoms 2 entry C          line   186 file /Users/joseantoniorodriguesromero/anaconda3/share/psi4/basis/cc-pvtz.gbs 


         ---------------------------------------------------------
                                   SCF
               by Justin Turney, Rob Parrish, Andy Simmonett
                          and Daniel G. A. Smith
                              UKS Reference
                        1 Threads,    500 MiB Core
         ---------------------------------------------------------

  ==> Geometry <==

    Molecular point group: c2v
    Full point group: C_inf_v

    Geometry (in Angstrom), charge = -1, multiplicity = 2:

       Center              X                  Y                   Z               Mass       
    ------------   -----------------  -----------------  -----------------  -----------------
         O            0.000000000000     0.000000000000    -0.761467584012    15.994914619570
         C            0.000000000000     0.000000000000     1.014967415988    12.000000000000

  Running in c2v symmetry.

  Rotational constants: A = ************  B =      0.77914  C =      0.77914 [cm^-1]
  Rotational constants: A = ************  B =  23357.93965  C =  23357.93965 [MHz]
  Nuclear repulsion =   14.298584587761445

  Charge       = -1
  Multiplicity = 2
  Electrons    = 15
  Nalpha       = 8
  Nbeta        = 7

  ==> Algorithm <==

  SCF Algorithm Type is DF.
  DIIS enabled.
  MOM disabled.
  Fractional occupation disabled.
  Guess Type is READ.
  Energy threshold   = 1.00e-08
  Density threshold  = 1.00e-08
  Integral threshold = 1.00e-12

  ==> Primary Basis <==

  Basis Set: CC-PVTZ
    Blend: CC-PVTZ
    Number of shells: 20
    Number of basis functions: 60
    Number of Cartesian functions: 70
    Spherical Harmonics?: true
    Max angular momentum: 3

  ==> DFT Potential <==

   => LibXC <=

    Version 6.2.2
    S. Lehtola, C. Steigemann, M. J.T. Oliveira, and M. A.L. Marques.,  SoftwareX 7, 1–5 (2018) (10.1016/j.softx.2017.11.002)

   => Composite Functional: B3LYP <= 

    B3LYP Hyb-GGA Exchange-Correlation Functional

    P. J. Stephens, F. J. Devlin, C. F. Chabalowski, and M. J. Frisch.,  J. Phys. Chem. 98, 11623 (1994) (10.1021/j100096a001)

    Deriv               =              1
    GGA                 =           TRUE
    Meta                =          FALSE

    Exchange Hybrid     =           TRUE
    MP2 Hybrid          =          FALSE

   => Exchange Functionals <=

    0.0800   Slater exchange
    0.7200         Becke 88

   => Exact (HF) Exchange <=

    0.2000               HF 

   => Correlation Functionals <=

    0.1900   Vosko, Wilk & Nusair (VWN5_RPA)
    0.8100   Lee, Yang & Parr

   => LibXC Density Thresholds  <==

    XC_HYB_GGA_XC_B3LYP:  1.00E-15 

   => Molecular Quadrature <=

    Radial Scheme          =       TREUTLER
    Pruning Scheme         =           NONE
    Nuclear Scheme         =       TREUTLER

    Blocking Scheme        =         OCTREE
    BS radius alpha        =              1
    Pruning alpha          =              1
    Radial Points          =             75
    Spherical Points       =            302
    Total Points           =          43351
    Total Blocks           =            390
    Max Points             =            255
    Max Functions          =             60
    Weights Tolerance      =       1.00E-15

   => Loading Basis Set <=

    Name: (CC-PVTZ AUX)
    Role: JKFIT
    Keyword: DF_BASIS_SCF
    atoms 1 entry O          line   229 file /Users/joseantoniorodriguesromero/anaconda3/share/psi4/basis/cc-pvtz-jkfit.gbs 
    atoms 2 entry C          line   125 file /Users/joseantoniorodriguesromero/anaconda3/share/psi4/basis/cc-pvtz-jkfit.gbs 

   => Loading Basis Set <=

    Name: CC-PVTZ
    Role: ORBITAL
    Keyword: BASIS
    atoms 1 entry O          line   262 file /Users/joseantoniorodriguesromero/anaconda3/share/psi4/basis/cc-pvtz.gbs 
    atoms 2 entry C          line   186 file /Users/joseantoniorodriguesromero/anaconda3/share/psi4/basis/cc-pvtz.gbs 

  Reading orbitals from file /tmp/scan_CO_48.default.49358.180.npy, no projection.

  ==> Integral Setup <==

  DFHelper Memory: AOs need 0.005 GiB; user supplied 0.295 GiB. 
  Using in-core AOs.

  ==> MemDFJK: Density-Fitted J/K Matrices <==

    J tasked:                   Yes
    K tasked:                   Yes
    wK tasked:                   No
    OpenMP threads:               1
    Memory [MiB]:               302
    Algorithm:                 Core
    Schwarz Cutoff:           1E-12
    Mask sparsity (%):       0.0000
    Fitting Condition:        1E-10

   => Auxiliary Basis Set <=

  Basis Set: (CC-PVTZ AUX)
    Blend: CC-PVTZ-JKFIT
    Number of shells: 50
    Number of basis functions: 158
    Number of Cartesian functions: 192
    Spherical Harmonics?: true
    Max angular momentum: 4

  Cached 100.0% of DFT collocation blocks in 0.071 [GiB].

  Minimum eigenvalue in the overlap matrix is 1.3770959672E-02.
  Reciprocal condition number of the overlap matrix is 4.1252135653E-03.
    Using symmetric orthogonalization.

  ==> Pre-Iterations <==

  SCF Guess: Orbitals guess was supplied from a previous computation.

   -------------------------------------------------------
    Irrep   Nso     Nmo     Nalpha   Nbeta   Ndocc  Nsocc
   -------------------------------------------------------
     A1        26      26       5       5       5       0
     A2         6       6       0       0       0       0
     B1        14      14       2       1       1       1
     B2        14      14       1       1       1       0
   -------------------------------------------------------
    Total      60      60       8       7       7       1
   -------------------------------------------------------

  ==> Iterations <==

                           Total Energy        Delta E     RMS |[F,P]|

   @DF-UKS iter   0:  -113.14041268299533   -1.13140e+02   9.85016e-04 
   @DF-UKS iter   1:  -113.14631001944181   -5.89734e-03   8.17718e-04 ADIIS/DIIS
   @DF-UKS iter   2:  -113.13965446112206    6.65556e-03   3.86207e-03 ADIIS/DIIS/DAMP=1%
   @DF-UKS iter   3:  -113.14451848405004   -4.86402e-03   1.93492e-04 ADIIS/DIIS/DAMP=1%
   @DF-UKS iter   4:  -113.14656266226557   -2.04418e-03   1.37217e-04 ADIIS/DIIS/DAMP=1%
   @DF-UKS iter   5:  -113.14666281098613   -1.00149e-04   6.41509e-05 DIIS/DAMP=1%
   @DF-UKS iter   6:  -113.14670417474584   -4.13638e-05   3.95970e-05 DIIS/DAMP=1%
   @DF-UKS iter   7:  -113.14680941545568   -1.05241e-04   8.06570e-05 DIIS/DAMP=1%
   @DF-UKS iter   8:  -113.14672834281599    8.10726e-05   6.12577e-06 DIIS/DAMP=1%
   @DF-UKS iter   9:  -113.14675945934562   -3.11165e-05   1.74229e-06 DIIS/DAMP=1%
   @DF-UKS iter  10:  -113.14676479796321   -5.33862e-06   1.23985e-06 DIIS/DAMP=1%
   @DF-UKS iter  11:  -113.14676284809599    1.94987e-06   1.27585e-06 DIIS/DAMP=1%
   @DF-UKS iter  12:  -113.14676445459091   -1.60649e-06   5.52362e-08 DIIS/DAMP=1%
   @DF-UKS iter  13:  -113.14676386139163    5.93199e-07   5.86975e-08 DIIS/DAMP=1%
   @DF-UKS iter  14:  -113.14676378993232    7.14593e-08   5.15484e-09 DIIS/DAMP=1%
   @DF-UKS iter  15:  -113.14676383455242   -4.46201e-08   7.31213e-09 DIIS/DAMP=1%
   @DF-UKS iter  16:  -113.14676382531870    9.23372e-09   5.08601e-10 DIIS/DAMP=1%
  Energy and wave function converged.


  ==> Post-Iterations <==

   Electrons on quadrature grid:
      Nalpha   =    8.0000000079 ; deviation = 7.885e-09
      Nbeta    =    6.9999999587 ; deviation = -4.129e-08
      Ntotal   =   14.9999999666 ; deviation = -3.341e-08 

   @Spin Contamination Metric:   1.620636064E-01
   @S^2 Expected:                7.500000000E-01
   @S^2 Observed:                9.120636064E-01
   @S   Expected:                5.000000000E-01
   @S   Observed:                5.000000000E-01

    Orbital Energies [Eh]
    ---------------------

    Alpha Occupied:                                                       

       1A1   -18.846997     2A1   -10.013072     3A1    -0.584642  
       4A1    -0.279114     5A1    -0.035778     1B1    -0.033143  
       1B2     0.000594     2B1     0.061137  

    Alpha Virtual:                                                        

       2B2     0.149851     6A1     0.279477     3B1     0.536833  
       7A1     0.537000     3B2     0.546179     8A1     0.609588  
       9A1     0.838271     4B1     0.877965     4B2     0.886807  
       1A2     0.918009    10A1     0.919540     5B2     1.021788  
       5B1     1.021886    11A1     1.205782    12A1     1.507126  
       2A2     1.793611    13A1     1.794611     6B1     1.896772  
       6B2     1.898965    14A1     1.995909     7B1     2.225601  
       7B2     2.236532    15A1     2.612996     8B1     2.924526  
       8B2     2.924912     3A2     2.947425    16A1     2.949016  
       9B1     3.061572     9B2     3.062496    17A1     3.105868  
       4A2     3.184513    18A1     3.188279    10B1     3.338225  
      10B2     3.344304    19A1     3.459460    11B1     3.950543  
      11B2     3.964541    20A1     4.028574    21A1     4.635003  
      12B1     5.454702    12B2     5.454875     5A2     5.460870  
      22A1     5.461859    13B2     5.582585    13B1     5.582681  
      23A1     5.792077     6A2     6.523117    24A1     6.525710  
      14B1     6.709809    14B2     6.719839    25A1     7.073946  
      26A1     8.414326  

    Beta Occupied:                                                        

       1A1   -18.853458     2A1    -9.994924     3A1    -0.600993  
       4A1    -0.221920     1B2    -0.035291     5A1    -0.032008  
       1B1    -0.000780  

    Beta Virtual:                                                         

       2B2     0.175220     2B1     0.204105     6A1     0.293482  
       7A1     0.547691     3B2     0.573770     3B1     0.593278  
       8A1     0.635566     9A1     0.838494     4B2     0.869534  
       4B1     0.890449     1A2     0.967413    10A1     0.967486  
       5B2     1.029894     5B1     1.047165    11A1     1.217742  
      12A1     1.503699     2A2     1.783125    13A1     1.783253  
       6B2     1.889065     6B1     1.910049    14A1     1.999981  
       7B2     2.269915     7B1     2.297257    15A1     2.633948  
       8B2     2.991042     8B1     2.991161    16A1     2.993007  
       3A2     2.993321     9B2     3.085399     9B1     3.108495  
      17A1     3.122243    18A1     3.270062     4A2     3.270670  
      10B2     3.368087    10B1     3.393976    19A1     3.485689  
      11B2     3.927364    11B1     3.959531    20A1     4.055259  
      21A1     4.636038    12B2     5.439551    12B1     5.439642  
      22A1     5.448389     5A2     5.448647    13B2     5.559976  
      13B1     5.584656    23A1     5.783839    24A1     6.503742  
       6A2     6.503944    14B2     6.683863    14B1     6.714097  
      25A1     7.063808    26A1     8.402142  

    Final Occupation by Irrep:
             A1    A2    B1    B2 
    DOCC [     5,    0,    1,    1 ]
    SOCC [     0,    0,    1,    0 ]
    NA   [     5,    0,    2,    1 ]
    NB   [     5,    0,    1,    1 ]

  @DF-UKS Final Energy:  -113.14676382531870

   => Energetics <=

    Nuclear Repulsion Energy =             14.2985845877614448
    One-Electron Energy =                -187.3060951627672353
    Two-Electron Energy =                  71.1317587837472303
    DFT Exchange-Correlation Energy =     -11.2710120340601296
    Empirical Dispersion Energy =           0.0000000000000000
    VV10 Nonlocal Energy =                  0.0000000000000000
    Total Energy =                       -113.1467638253187005

  UHF NO Occupations:
  HONO-2 :    5 A1 1.9973372
  HONO-1 :    1 B2 1.9196398
  HONO-0 :    2 B1 1.0000000
  LUNO+0 :    2 B2 0.0803602
  LUNO+1 :    6 A1 0.0026628
  LUNO+2 :    7 A1 0.0006044
  LUNO+3 :    3 B1 0.0005682


Computation Completed


Properties will be evaluated at   0.000000,   0.000000,   0.000000 [a0]

Properties computed using the SCF density matrix


 Multipole Moments:

 ------------------------------------------------------------------------------------
     Multipole            Electronic (a.u.)      Nuclear  (a.u.)        Total (a.u.)
 ------------------------------------------------------------------------------------

 L = 1.  Multiply by 2.5417464519 to convert [e a0] to [Debye]
 Dipole X            :          0.0000000            0.0000000            0.0000000
 Dipole Y            :          0.0000000            0.0000000            0.0000000
 Dipole Z            :         -0.1181348           -0.0036588           -0.1217937
 Magnitude           :                                                    0.1217937

 ------------------------------------------------------------------------------------

*** tstop() called on Mac.lan at Sun Aug 10 17:43:58 2025
Module time:
	user time   =      19.85 seconds =       0.33 minutes
	system time =       2.09 seconds =       0.03 minutes
	total time  =          2 seconds =       0.03 minutes
Total time:
	user time   =      19.85 seconds =       0.33 minutes
	system time =       2.09 seconds =       0.03 minutes
	total time  =          2 seconds =       0.03 minutes

*** tstart() called on Mac.lan
*** at Sun Aug 10 17:43:58 2025

   => Libint2 <=

    Primary   basis highest AM E, G, H:  6, 6, 3
    Auxiliary basis highest AM E, G, H:  7, 7, 4
    Onebody   basis highest AM E, G, H:  -, -, -
    Solid Harmonics ordering:            Gaussian
   => Loading Basis Set <=

    Name: CC-PVTZ
    Role: ORBITAL
    Keyword: BASIS
    atoms 1 entry O          line   262 file /Users/joseantoniorodriguesromero/anaconda3/share/psi4/basis/cc-pvtz.gbs 
    atoms 2 entry C          line   186 file /Users/joseantoniorodriguesromero/anaconda3/share/psi4/basis/cc-pvtz.gbs 


         ---------------------------------------------------------
                                   SCF
               by Justin Turney, Rob Parrish, Andy Simmonett
                          and Daniel G. A. Smith
                              UKS Reference
                        1 Threads,    500 MiB Core
         ---------------------------------------------------------

  ==> Geometry <==

    Molecular point group: c2v
    Full point group: C_inf_v

    Geometry (in Angstrom), charge = -1, multiplicity = 2:

       Center              X                  Y                   Z               Mass       
    ------------   -----------------  -----------------  -----------------  -----------------
         O            0.000000000000     0.000000000000    -0.761467584012    15.994914619570
         C            0.000000000000     0.000000000000     1.014967415988    12.000000000000

  Running in c2v symmetry.

  Rotational constants: A = ************  B =      0.77914  C =      0.77914 [cm^-1]
  Rotational constants: A = ************  B =  23357.93965  C =  23357.93965 [MHz]
  Nuclear repulsion =   14.298584587761445

  Charge       = -1
  Multiplicity = 2
  Electrons    = 15
  Nalpha       = 8
  Nbeta        = 7

  ==> Algorithm <==

  SCF Algorithm Type is DF.
  DIIS enabled.
  MOM disabled.
  Fractional occupation disabled.
  Guess Type is READ.
  Energy threshold   = 1.00e-08
  Density threshold  = 1.00e-08
  Integral threshold = 1.00e-12

  ==> Primary Basis <==

  Basis Set: CC-PVTZ
    Blend: CC-PVTZ
    Number of shells: 20
    Number of basis functions: 60
    Number of Cartesian functions: 70
    Spherical Harmonics?: true
    Max angular momentum: 3

  ==> DFT Potential <==

   => LibXC <=

    Version 6.2.2
    S. Lehtola, C. Steigemann, M. J.T. Oliveira, and M. A.L. Marques.,  SoftwareX 7, 1–5 (2018) (10.1016/j.softx.2017.11.002)

   => Composite Functional: B3LYP <= 

    B3LYP Hyb-GGA Exchange-Correlation Functional

    P. J. Stephens, F. J. Devlin, C. F. Chabalowski, and M. J. Frisch.,  J. Phys. Chem. 98, 11623 (1994) (10.1021/j100096a001)

    Deriv               =              1
    GGA                 =           TRUE
    Meta                =          FALSE

    Exchange Hybrid     =           TRUE
    MP2 Hybrid          =          FALSE

   => Exchange Functionals <=

    0.0800   Slater exchange
    0.7200         Becke 88

   => Exact (HF) Exchange <=

    0.2000               HF 

   => Correlation Functionals <=

    0.1900   Vosko, Wilk & Nusair (VWN5_RPA)
    0.8100   Lee, Yang & Parr

   => LibXC Density Thresholds  <==

    XC_HYB_GGA_XC_B3LYP:  1.00E-15 

   => Molecular Quadrature <=

    Radial Scheme          =       TREUTLER
    Pruning Scheme         =           NONE
    Nuclear Scheme         =       TREUTLER

    Blocking Scheme        =         OCTREE
    BS radius alpha        =              1
    Pruning alpha          =              1
    Radial Points          =             75
    Spherical Points       =            302
    Total Points           =          43351
    Total Blocks           =            390
    Max Points             =            255
    Max Functions          =             60
    Weights Tolerance      =       1.00E-15

   => Loading Basis Set <=

    Name: (CC-PVTZ AUX)
    Role: JKFIT
    Keyword: DF_BASIS_SCF
    atoms 1 entry O          line   229 file /Users/joseantoniorodriguesromero/anaconda3/share/psi4/basis/cc-pvtz-jkfit.gbs 
    atoms 2 entry C          line   125 file /Users/joseantoniorodriguesromero/anaconda3/share/psi4/basis/cc-pvtz-jkfit.gbs 

   => Loading Basis Set <=

    Name: CC-PVTZ
    Role: ORBITAL
    Keyword: BASIS
    atoms 1 entry O          line   262 file /Users/joseantoniorodriguesromero/anaconda3/share/psi4/basis/cc-pvtz.gbs 
    atoms 2 entry C          line   186 file /Users/joseantoniorodriguesromero/anaconda3/share/psi4/basis/cc-pvtz.gbs 

  Reading orbitals from file /tmp/scan_CO_48.default.49358.180.npy, no projection.

  ==> Integral Setup <==

  DFHelper Memory: AOs need 0.005 GiB; user supplied 0.295 GiB. 
  Using in-core AOs.

  ==> MemDFJK: Density-Fitted J/K Matrices <==

    J tasked:                   Yes
    K tasked:                   Yes
    wK tasked:                   No
    OpenMP threads:               1
    Memory [MiB]:               302
    Algorithm:                 Core
    Schwarz Cutoff:           1E-12
    Mask sparsity (%):       0.0000
    Fitting Condition:        1E-10

   => Auxiliary Basis Set <=

  Basis Set: (CC-PVTZ AUX)
    Blend: CC-PVTZ-JKFIT
    Number of shells: 50
    Number of basis functions: 158
    Number of Cartesian functions: 192
    Spherical Harmonics?: true
    Max angular momentum: 4

  Cached 100.0% of DFT collocation blocks in 0.071 [GiB].

  Minimum eigenvalue in the overlap matrix is 1.3770959672E-02.
  Reciprocal condition number of the overlap matrix is 4.1252135653E-03.
    Using symmetric orthogonalization.

  ==> Pre-Iterations <==

  SCF Guess: Orbitals guess was supplied from a previous computation.

   -------------------------------------------------------
    Irrep   Nso     Nmo     Nalpha   Nbeta   Ndocc  Nsocc
   -------------------------------------------------------
     A1        26      26       5       5       5       0
     A2         6       6       0       0       0       0
     B1        14      14       2       1       1       1
     B2        14      14       1       1       1       0
   -------------------------------------------------------
    Total      60      60       8       7       7       1
   -------------------------------------------------------

  ==> Iterations <==

                           Total Energy        Delta E     RMS |[F,P]|

   @DF-UKS iter   0:  -113.14676382814149   -1.13147e+02   1.87350e-10 
   @DF-UKS iter   1:  -113.14676382814156   -7.10543e-14   9.29411e-10 DIIS
  Energy and wave function converged.


  ==> Post-Iterations <==

   Electrons on quadrature grid:
      Nalpha   =    8.0000000079 ; deviation = 7.885e-09
      Nbeta    =    6.9999999587 ; deviation = -4.129e-08
      Ntotal   =   14.9999999666 ; deviation = -3.341e-08 

   @Spin Contamination Metric:   1.620636280E-01
   @S^2 Expected:                7.500000000E-01
   @S^2 Observed:                9.120636280E-01
   @S   Expected:                5.000000000E-01
   @S   Observed:                5.000000000E-01

    Orbital Energies [Eh]
    ---------------------

    Alpha Occupied:                                                       

       1A1   -18.846997     2A1   -10.013072     3A1    -0.584642  
       4A1    -0.279114     5A1    -0.035778     1B1    -0.033143  
       1B2     0.000594     2B1     0.061137  

    Alpha Virtual:                                                        

       2B2     0.149851     6A1     0.279477     3B1     0.536833  
       7A1     0.537000     3B2     0.546179     8A1     0.609588  
       9A1     0.838271     4B1     0.877965     4B2     0.886807  
       1A2     0.918009    10A1     0.919540     5B2     1.021788  
       5B1     1.021886    11A1     1.205782    12A1     1.507126  
       2A2     1.793612    13A1     1.794611     6B1     1.896772  
       6B2     1.898965    14A1     1.995909     7B1     2.225601  
       7B2     2.236532    15A1     2.612996     8B1     2.924526  
       8B2     2.924912     3A2     2.947425    16A1     2.949016  
       9B1     3.061572     9B2     3.062496    17A1     3.105868  
       4A2     3.184513    18A1     3.188279    10B1     3.338225  
      10B2     3.344304    19A1     3.459460    11B1     3.950543  
      11B2     3.964541    20A1     4.028574    21A1     4.635003  
      12B1     5.454702    12B2     5.454875     5A2     5.460870  
      22A1     5.461859    13B2     5.582585    13B1     5.582681  
      23A1     5.792077     6A2     6.523117    24A1     6.525710  
      14B1     6.709809    14B2     6.719839    25A1     7.073946  
      26A1     8.414326  

    Beta Occupied:                                                        

       1A1   -18.853458     2A1    -9.994924     3A1    -0.600993  
       4A1    -0.221920     1B2    -0.035291     5A1    -0.032008  
       1B1    -0.000780  

    Beta Virtual:                                                         

       2B2     0.175220     2B1     0.204105     6A1     0.293482  
       7A1     0.547691     3B2     0.573770     3B1     0.593278  
       8A1     0.635566     9A1     0.838494     4B2     0.869534  
       4B1     0.890449     1A2     0.967413    10A1     0.967486  
       5B2     1.029894     5B1     1.047165    11A1     1.217742  
      12A1     1.503699     2A2     1.783125    13A1     1.783253  
       6B2     1.889065     6B1     1.910049    14A1     1.999981  
       7B2     2.269915     7B1     2.297257    15A1     2.633948  
       8B2     2.991042     8B1     2.991161    16A1     2.993007  
       3A2     2.993321     9B2     3.085399     9B1     3.108495  
      17A1     3.122243    18A1     3.270062     4A2     3.270670  
      10B2     3.368087    10B1     3.393976    19A1     3.485689  
      11B2     3.927364    11B1     3.959531    20A1     4.055259  
      21A1     4.636038    12B2     5.439551    12B1     5.439642  
      22A1     5.448389     5A2     5.448647    13B2     5.559976  
      13B1     5.584656    23A1     5.783839    24A1     6.503742  
       6A2     6.503944    14B2     6.683863    14B1     6.714097  
      25A1     7.063808    26A1     8.402142  

    Final Occupation by Irrep:
             A1    A2    B1    B2 
    DOCC [     5,    0,    1,    1 ]
    SOCC [     0,    0,    1,    0 ]
    NA   [     5,    0,    2,    1 ]
    NB   [     5,    0,    1,    1 ]

  @DF-UKS Final Energy:  -113.14676382814156

   => Energetics <=

    Nuclear Repulsion Energy =             14.2985845877614448
    One-Electron Energy =                -187.3060953438861134
    Two-Electron Energy =                  71.1317589501544632
    DFT Exchange-Correlation Energy =     -11.2710120221713499
    Empirical Dispersion Energy =           0.0000000000000000
    VV10 Nonlocal Energy =                  0.0000000000000000
    Total Energy =                       -113.1467638281415589

  UHF NO Occupations:
  HONO-2 :    5 A1 1.9973372
  HONO-1 :    1 B2 1.9196398
  HONO-0 :    2 B1 1.0000000
  LUNO+0 :    2 B2 0.0803602
  LUNO+1 :    6 A1 0.0026628
  LUNO+2 :    7 A1 0.0006044
  LUNO+3 :    3 B1 0.0005682


Computation Completed


Properties will be evaluated at   0.000000,   0.000000,   0.000000 [a0]

Properties computed using the B3LYP density matrix


 Multipole Moments:

 ------------------------------------------------------------------------------------
     Multipole            Electronic (a.u.)      Nuclear  (a.u.)        Total (a.u.)
 ------------------------------------------------------------------------------------

 L = 1.  Multiply by 2.5417464519 to convert [e a0] to [Debye]
 Dipole X            :          0.0000000            0.0000000            0.0000000
 Dipole Y            :          0.0000000            0.0000000            0.0000000
 Dipole Z            :         -0.1181353           -0.0036588           -0.1217941
 Magnitude           :                                                    0.1217941

 L = 2.  Multiply by 1.3450342976 to convert [e a0^2] to [Debye ang]
 Quadrupole XX       :        -11.2084307            0.0000000          -11.2084307
 Quadrupole XY       :          0.0000000            0.0000000            0.0000000
 Quadrupole XZ       :          0.0000000            0.0000000            0.0000000
 Quadrupole YY       :        -10.0266723            0.0000000          -10.0266723
 Quadrupole YZ       :          0.0000000            0.0000000            0.0000000
 Quadrupole ZZ       :        -52.9952221           38.6375508          -14.3576713
 Traceless XX        :         13.5350110          -12.8791836            0.6558274
 Traceless YY        :         14.7167694          -12.8791836            1.8375858
 Traceless ZZ        :        -28.2517804           25.7583672           -2.4934132

 ------------------------------------------------------------------------------------
  ==> Computing MBIS Charges <==

  Electron Count from Grid (Expected Number): 15.00000 (15.00000)
  Difference: -0.00000

  MBIS Charges: (a.u.)
   Center  Symbol  Z      Pop.       Charge
      1       O    8    8.600024   -0.600024
      2       C    6    6.399976   -0.399976

  MBIS Dipoles: [e a0]
   Center  Symbol  Z        X           Y           Z
      1       O    8    0.000000   -0.000000    0.022719
      2       C    6   -0.000000    0.000000   -0.240770

  MBIS Quadrupoles: [e a0^2]
   Center  Symbol  Z      XX        XY        XZ        YY        YZ        ZZ
      1       O    8   -4.9147   -0.0000   -0.0000   -4.6111   -0.0000   -4.6166
      2       C    6   -6.2937    0.0000    0.0000   -5.4156    0.0000   -6.0382

  MBIS Octupoles: [e a0^3]
   Center  Symbol  Z      XXX       XXY       XXZ       XYY       XYZ       XZZ       YYY       YYZ       YZZ       ZZZ
      1       O    8   -0.0000   -0.0000    0.0116   -0.0000    0.0000   -0.0000   -0.0000   -0.0496   -0.0000   -0.1881
      2       C    6   -0.0000   -0.0000   -0.3252    0.0000    0.0000    0.0000    0.0000   -0.0200    0.0000    0.1059

  MBIS Radial Moments:
   Center  Symbol  Z      [a0^2]      [a0^3]      [a0^4]      
      1       O    8   14.142441   28.641322   69.124827
      2       C    6   17.747509   47.787447   151.615090

  MBIS Valence Widths: [a0]
   Center  Symbol  Z     Width
      1       O    8    0.413357
      2       C    6    0.566571

*** tstop() called on Mac.lan at Sun Aug 10 17:43:58 2025
Module time:
	user time   =       4.11 seconds =       0.07 minutes
	system time =       1.41 seconds =       0.02 minutes
	total time  =          0 seconds =       0.00 minutes
Total time:
	user time   =      24.04 seconds =       0.40 minutes
	system time =       3.65 seconds =       0.06 minutes
	total time  =          2 seconds =       0.03 minutes

    Psi4 stopped on: Sunday, 10 August 2025 05:43PM
    Psi4 wall time for execution: 0:00:02.66

*** Psi4 exiting successfully. Buy a developer a beer!
