
    -----------------------------------------------------------------------
          Psi4: An Open-Source Ab Initio Electronic Structure Package
                               Psi4 1.9.1 release

                         Git: Rev {} zzzzzzz 


    D. G. A. Smith, L. A. Burns, A. C. Simmonett, R. M. Parrish,
    M. C. Schieber, R. Galvelis, P. Kraus, H. Kruse, R. Di Remigio,
    A. Alenaizan, A. M. James, S. Lehtola, J. P. Misiewicz, M. Scheurer,
    R. A. Shaw, J. B. Schriber, Y. Xie, Z. L. Glick, D. A. Sirianni,
    J. S. O'Brien, J. M. Waldrop, A. Kumar, E. G. Hohenstein,
    B. P. Pritchard, B. R. Brooks, H. F. Schaefer III, A. Yu. Sokolov,
    K. Patkowski, A. E. DePrince III, U. Bozkaya, R. A. King,
    F. A. Evangelista, J. M. Turney, T. D. Crawford, C. D. Sherrill,
    J. Chem. Phys. 152(18) 184108 (2020). https://doi.org/10.1063/5.0006002

                            Additional Code Authors
    E. T. Seidl, C. L. Janssen, E. F. Valeev, M. L. Leininger,
    J. F. Gonthier, R. M. Richard, H. R. McAlexander, M. Saitow, X. Wang,
    P. Verma, M. H. Lechner, A. Jiang, S. Behnle, A. G. Heide,
    M. F. Herbst, and D. L. Poole

             Previous Authors, Complete List of Code Contributors,
                       and Citations for Specific Modules
    https://github.com/psi4/psi4/blob/master/codemeta.json
    https://github.com/psi4/psi4/graphs/contributors
    http://psicode.org/psi4manual/master/introduction.html#citing-psifour

    -----------------------------------------------------------------------


    Psi4 started on: Sunday, 10 August 2025 05:33PM

    Process ID: 49027
    Host:       Mac.lan
    PSIDATADIR: /Users/joseantoniorodriguesromero/anaconda3/share/psi4
    Memory:     500.0 MiB
    Threads:    1
    
  ==> Input File <==

--------------------------------------------------------------------------
molecule { 
-1 2
N           0.000000           0.000000           0.000000
N           0.000000           0.000000           1.141216
}

set { 
basis              cc-pvtz
reference          uks
maxiter            500
DAMPING_PERCENTAGE 1
E_CONVERGENCE      1.0E-8
D_CONVERGENCE      1.0E-8
DIIS_MAX_VECS      400
MBIS_MAXITER       8000
guess              read
}

E, wfn = energy('b3lyp', restart_file='last_wfn', return_wfn=True)
properties('b3lyp','MBIS_CHARGES', wfn=wfn)
wfn.to_file('last_wfn')
--------------------------------------------------------------------------

Scratch directory: /tmp/
 Found user provided orbital data. Setting orbital guess to READ 
 Copying restart file <last_wfn.npy> to </tmp/scan_NN_27.default.49027.180.npy> for internal processing
   => Libint2 <=

    Primary   basis highest AM E, G, H:  6, 6, 3
    Auxiliary basis highest AM E, G, H:  7, 7, 4
    Onebody   basis highest AM E, G, H:  -, -, -
    Solid Harmonics ordering:            Gaussian

*** tstart() called on Mac.lan
*** at Sun Aug 10 17:33:26 2025

   => Loading Basis Set <=

    Name: CC-PVTZ
    Role: ORBITAL
    Keyword: BASIS
    atoms 1-2 entry N          line   224 file /Users/joseantoniorodriguesromero/anaconda3/share/psi4/basis/cc-pvtz.gbs 


         ---------------------------------------------------------
                                   SCF
               by Justin Turney, Rob Parrish, Andy Simmonett
                          and Daniel G. A. Smith
                              UKS Reference
                        1 Threads,    500 MiB Core
         ---------------------------------------------------------

  ==> Geometry <==

    Molecular point group: d2h
    Full point group: D_inf_h

    Geometry (in Angstrom), charge = -1, multiplicity = 2:

       Center              X                  Y                   Z               Mass       
    ------------   -----------------  -----------------  -----------------  -----------------
         N            0.000000000000     0.000000000000    -0.570608000000    14.003074004430
         N            0.000000000000     0.000000000000     0.570608000000    14.003074004430

  Running in d2h symmetry.

  Rotational constants: A = ************  B =      1.84870  C =      1.84870 [cm^-1]
  Rotational constants: A = ************  B =  55422.75461  C =  55422.75461 [MHz]
  Nuclear repulsion =   22.721100407661652

  Charge       = -1
  Multiplicity = 2
  Electrons    = 15
  Nalpha       = 8
  Nbeta        = 7

  ==> Algorithm <==

  SCF Algorithm Type is DF.
  DIIS enabled.
  MOM disabled.
  Fractional occupation disabled.
  Guess Type is READ.
  Energy threshold   = 1.00e-08
  Density threshold  = 1.00e-08
  Integral threshold = 1.00e-12

  ==> Primary Basis <==

  Basis Set: CC-PVTZ
    Blend: CC-PVTZ
    Number of shells: 20
    Number of basis functions: 60
    Number of Cartesian functions: 70
    Spherical Harmonics?: true
    Max angular momentum: 3

  ==> DFT Potential <==

   => LibXC <=

    Version 6.2.2
    S. Lehtola, C. Steigemann, M. J.T. Oliveira, and M. A.L. Marques.,  SoftwareX 7, 1–5 (2018) (10.1016/j.softx.2017.11.002)

   => Composite Functional: B3LYP <= 

    B3LYP Hyb-GGA Exchange-Correlation Functional

    P. J. Stephens, F. J. Devlin, C. F. Chabalowski, and M. J. Frisch.,  J. Phys. Chem. 98, 11623 (1994) (10.1021/j100096a001)

    Deriv               =              1
    GGA                 =           TRUE
    Meta                =          FALSE

    Exchange Hybrid     =           TRUE
    MP2 Hybrid          =          FALSE

   => Exchange Functionals <=

    0.0800   Slater exchange
    0.7200         Becke 88

   => Exact (HF) Exchange <=

    0.2000               HF 

   => Correlation Functionals <=

    0.1900   Vosko, Wilk & Nusair (VWN5_RPA)
    0.8100   Lee, Yang & Parr

   => LibXC Density Thresholds  <==

    XC_HYB_GGA_XC_B3LYP:  1.00E-15 

   => Molecular Quadrature <=

    Radial Scheme          =       TREUTLER
    Pruning Scheme         =           NONE
    Nuclear Scheme         =       TREUTLER

    Blocking Scheme        =         OCTREE
    BS radius alpha        =              1
    Pruning alpha          =              1
    Radial Points          =             75
    Spherical Points       =            302
    Total Points           =          42436
    Total Blocks           =            374
    Max Points             =            255
    Max Functions          =             60
    Weights Tolerance      =       1.00E-15

   => Loading Basis Set <=

    Name: (CC-PVTZ AUX)
    Role: JKFIT
    Keyword: DF_BASIS_SCF
    atoms 1-2 entry N          line   177 file /Users/joseantoniorodriguesromero/anaconda3/share/psi4/basis/cc-pvtz-jkfit.gbs 

   => Loading Basis Set <=

    Name: CC-PVTZ
    Role: ORBITAL
    Keyword: BASIS
    atoms 1-2 entry N          line   224 file /Users/joseantoniorodriguesromero/anaconda3/share/psi4/basis/cc-pvtz.gbs 

  Reading orbitals from file /tmp/scan_NN_27.default.49027.180.npy, no projection.

  ==> Integral Setup <==

  DFHelper Memory: AOs need 0.005 GiB; user supplied 0.295 GiB. 
  Using in-core AOs.

  ==> MemDFJK: Density-Fitted J/K Matrices <==

    J tasked:                   Yes
    K tasked:                   Yes
    wK tasked:                   No
    OpenMP threads:               1
    Memory [MiB]:               302
    Algorithm:                 Core
    Schwarz Cutoff:           1E-12
    Mask sparsity (%):       0.0000
    Fitting Condition:        1E-10

   => Auxiliary Basis Set <=

  Basis Set: (CC-PVTZ AUX)
    Blend: CC-PVTZ-JKFIT
    Number of shells: 50
    Number of basis functions: 158
    Number of Cartesian functions: 192
    Spherical Harmonics?: true
    Max angular momentum: 4

  Cached 100.0% of DFT collocation blocks in 0.071 [GiB].

  Minimum eigenvalue in the overlap matrix is 2.6623827296E-03.
  Reciprocal condition number of the overlap matrix is 7.2013258211E-04.
    Using symmetric orthogonalization.

  ==> Pre-Iterations <==

  SCF Guess: Orbitals guess was supplied from a previous computation.

   -------------------------------------------------------
    Irrep   Nso     Nmo     Nalpha   Nbeta   Ndocc  Nsocc
   -------------------------------------------------------
     Ag        13      13       3       3       3       0
     B1g        3       3       0       0       0       0
     B2g        7       7       1       0       0       1
     B3g        7       7       0       0       0       0
     Au         3       3       0       0       0       0
     B1u       13      13       2       2       2       0
     B2u        7       7       1       1       1       0
     B3u        7       7       1       1       1       0
   -------------------------------------------------------
    Total      60      60       8       7       7       1
   -------------------------------------------------------

  ==> Iterations <==

                           Total Energy        Delta E     RMS |[F,P]|

   @DF-UKS iter   0:  -109.47264028140883   -1.09473e+02   5.18554e-03 
   @DF-UKS iter   1:  -109.47916382101272   -6.52354e-03   6.16851e-04 DIIS/ADIIS
   @DF-UKS iter   2:  -109.47919174266286   -2.79217e-05   5.59169e-04 DIIS/ADIIS/DAMP=1%
   @DF-UKS iter   3:  -109.47882398711934    3.67756e-04   5.68314e-05 DIIS/DAMP=1%
   @DF-UKS iter   4:  -109.47930010007818   -4.76113e-04   1.23652e-05 DIIS/DAMP=1%
   @DF-UKS iter   5:  -109.47925381341112    4.62867e-05   1.47639e-06 DIIS/DAMP=1%
   @DF-UKS iter   6:  -109.47926474579887   -1.09324e-05   1.64819e-07 DIIS/DAMP=1%
   @DF-UKS iter   7:  -109.47926412688386    6.18915e-07   1.38219e-08 DIIS/DAMP=1%
   @DF-UKS iter   8:  -109.47926408867269    3.82112e-08   1.41878e-09 DIIS/DAMP=1%
   @DF-UKS iter   9:  -109.47926409392775   -5.25506e-09   1.34149e-10 DIIS/DAMP=1%
  Energy and wave function converged.


  ==> Post-Iterations <==

   Electrons on quadrature grid:
      Nalpha   =    8.0000000944 ; deviation = 9.440e-08
      Nbeta    =    7.0000001206 ; deviation = 1.206e-07
      Ntotal   =   15.0000002150 ; deviation = 2.150e-07 

   @Spin Contamination Metric:   2.617591605E-03
   @S^2 Expected:                7.500000000E-01
   @S^2 Observed:                7.526175916E-01
   @S   Expected:                5.000000000E-01
   @S   Observed:                5.000000000E-01

    Orbital Energies [Eh]
    ---------------------

    Alpha Occupied:                                                       

       1Ag   -14.009404     1B1u  -14.008267     2Ag    -0.715382  
       2B1u   -0.212042     1B3u   -0.109112     1B2u   -0.088012  
       3Ag    -0.068344     1B2g    0.211787  

    Alpha Virtual:                                                        

       1B3g    0.304617     3B1u    0.546573     2B3u    0.691413  
       2B2u    0.693115     4Ag     0.696987     2B2g    0.805168  
       5Ag     0.810953     2B3g    0.820934     4B1u    0.994132  
       5B1u    1.144312     1B1g    1.180478     6Ag     1.181597  
       3B3u    1.415543     3B2u    1.416486     1Au     1.578758  
       6B1u    1.580356     3B2g    1.997552     3B3g    2.000880  
       7Ag     2.011606     7B1u    2.183512     4B3u    3.100630  
       4B2u    3.111324     8Ag     3.269311     4B2g    3.406997  
       4B3g    3.415655     8B1u    3.754473     2B1g    3.826176  
       9Ag     3.827158     5B2u    3.940735     5B3u    3.944081  
       6B3u    3.992072     6B2u    3.992305    10Ag     4.288784  
       5B2g    4.411858     5B3g    4.412083     3B1g    4.717662  
      11Ag     4.720454     2Au     4.841236     9B1u    4.843734  
       6B2g    4.881026    10B1u    4.886855     6B3g    4.887372  
       3Au     5.196624    11B1u    5.197870     7B3u    5.310312  
       7B2u    5.311949    12Ag     5.541484    12B1u    5.941580  
      13Ag     6.580812     7B3g    6.602734     7B2g    6.603499  
      13B1u   14.841905  

    Beta Occupied:                                                        

       1Ag   -13.999245     1B1u  -13.998037     2Ag    -0.697389  
       2B1u   -0.177819     1B2u   -0.079497     3Ag    -0.051103  
       1B3u   -0.046954  

    Beta Virtual:                                                         

       1B3g    0.316020     1B2g    0.347960     3B1u    0.553798  
       2B2u    0.697088     4Ag     0.702227     2B3u    0.716701  
       5Ag     0.820706     2B3g    0.828118     2B2g    0.849750  
       4B1u    1.009446     5B1u    1.161806     1B1g    1.197626  
       6Ag     1.197874     3B2u    1.418661     3B3u    1.443989  
       1Au     1.608130     6B1u    1.608255     3B3g    2.004480  
       7Ag     2.021636     3B2g    2.026855     7B1u    2.194397  
       4B2u    3.119272     4B3u    3.149079     8Ag     3.278005  
       4B3g    3.424382     4B2g    3.456004     8B1u    3.771750  
       2B1g    3.840804     9Ag     3.841109     5B2u    3.943012  
       5B3u    3.967954     6B2u    4.019996     6B3u    4.020241  
      10Ag     4.300224     5B3g    4.443922     5B2g    4.443941  
       3B1g    4.760328    11Ag     4.760462     9B1u    4.881671  
       2Au     4.884944     6B3g    4.890894    10B1u    4.903969  
       6B2g    4.917788     3Au     5.218093    11B1u    5.218920  
       7B2u    5.315514     7B3u    5.344587    12Ag     5.559985  
      12B1u    5.954255    13Ag     6.593519     7B3g    6.606270  
       7B2g    6.633662    13B1u   14.856611  

    Final Occupation by Irrep:
             Ag   B1g   B2g   B3g    Au   B1u   B2u   B3u 
    DOCC [     3,    0,    0,    0,    0,    2,    1,    1 ]
    SOCC [     0,    0,    1,    0,    0,    0,    0,    0 ]
    NA   [     3,    0,    1,    0,    0,    2,    1,    1 ]
    NB   [     3,    0,    0,    0,    0,    2,    1,    1 ]

  @DF-UKS Final Energy:  -109.47926409392775

   => Energetics <=

    Nuclear Repulsion Energy =             22.7211004076616518
    One-Electron Energy =                -198.1912486013487751
    Two-Electron Energy =                  77.3371873256335789
    DFT Exchange-Correlation Energy =     -11.3463032258742160
    Empirical Dispersion Energy =           0.0000000000000000
    VV10 Nonlocal Energy =                  0.0000000000000000
    Total Energy =                       -109.4792640939277533

  UHF NO Occupations:
  HONO-2 :    2B1u 1.9996831
  HONO-1 :    1B3u 1.9992095
  HONO-0 :    1B2g 1.0000000
  LUNO+0 :    2B3u 0.0007905
  LUNO+1 :    3B1u 0.0003169
  LUNO+2 :    4 Ag 0.0001635
  LUNO+3 :    2B2u 0.0000292


Computation Completed


Properties will be evaluated at   0.000000,   0.000000,   0.000000 [a0]

Properties computed using the SCF density matrix


 Multipole Moments:

 ------------------------------------------------------------------------------------
     Multipole            Electronic (a.u.)      Nuclear  (a.u.)        Total (a.u.)
 ------------------------------------------------------------------------------------

 L = 1.  Multiply by 2.5417464519 to convert [e a0] to [Debye]
 Dipole X            :          0.0000000            0.0000000            0.0000000
 Dipole Y            :          0.0000000            0.0000000            0.0000000
 Dipole Z            :          0.0000000           -0.0000000           -0.0000000
 Magnitude           :                                                    0.0000000

 ------------------------------------------------------------------------------------

*** tstop() called on Mac.lan at Sun Aug 10 17:33:28 2025
Module time:
	user time   =      10.68 seconds =       0.18 minutes
	system time =       2.10 seconds =       0.04 minutes
	total time  =          2 seconds =       0.03 minutes
Total time:
	user time   =      10.68 seconds =       0.18 minutes
	system time =       2.10 seconds =       0.04 minutes
	total time  =          2 seconds =       0.03 minutes

*** tstart() called on Mac.lan
*** at Sun Aug 10 17:33:28 2025

   => Libint2 <=

    Primary   basis highest AM E, G, H:  6, 6, 3
    Auxiliary basis highest AM E, G, H:  7, 7, 4
    Onebody   basis highest AM E, G, H:  -, -, -
    Solid Harmonics ordering:            Gaussian
   => Loading Basis Set <=

    Name: CC-PVTZ
    Role: ORBITAL
    Keyword: BASIS
    atoms 1-2 entry N          line   224 file /Users/joseantoniorodriguesromero/anaconda3/share/psi4/basis/cc-pvtz.gbs 


         ---------------------------------------------------------
                                   SCF
               by Justin Turney, Rob Parrish, Andy Simmonett
                          and Daniel G. A. Smith
                              UKS Reference
                        1 Threads,    500 MiB Core
         ---------------------------------------------------------

  ==> Geometry <==

    Molecular point group: d2h
    Full point group: D_inf_h

    Geometry (in Angstrom), charge = -1, multiplicity = 2:

       Center              X                  Y                   Z               Mass       
    ------------   -----------------  -----------------  -----------------  -----------------
         N            0.000000000000     0.000000000000    -0.570608000000    14.003074004430
         N            0.000000000000     0.000000000000     0.570608000000    14.003074004430

  Running in d2h symmetry.

  Rotational constants: A = ************  B =      1.84870  C =      1.84870 [cm^-1]
  Rotational constants: A = ************  B =  55422.75461  C =  55422.75461 [MHz]
  Nuclear repulsion =   22.721100407661652

  Charge       = -1
  Multiplicity = 2
  Electrons    = 15
  Nalpha       = 8
  Nbeta        = 7

  ==> Algorithm <==

  SCF Algorithm Type is DF.
  DIIS enabled.
  MOM disabled.
  Fractional occupation disabled.
  Guess Type is READ.
  Energy threshold   = 1.00e-08
  Density threshold  = 1.00e-08
  Integral threshold = 1.00e-12

  ==> Primary Basis <==

  Basis Set: CC-PVTZ
    Blend: CC-PVTZ
    Number of shells: 20
    Number of basis functions: 60
    Number of Cartesian functions: 70
    Spherical Harmonics?: true
    Max angular momentum: 3

  ==> DFT Potential <==

   => LibXC <=

    Version 6.2.2
    S. Lehtola, C. Steigemann, M. J.T. Oliveira, and M. A.L. Marques.,  SoftwareX 7, 1–5 (2018) (10.1016/j.softx.2017.11.002)

   => Composite Functional: B3LYP <= 

    B3LYP Hyb-GGA Exchange-Correlation Functional

    P. J. Stephens, F. J. Devlin, C. F. Chabalowski, and M. J. Frisch.,  J. Phys. Chem. 98, 11623 (1994) (10.1021/j100096a001)

    Deriv               =              1
    GGA                 =           TRUE
    Meta                =          FALSE

    Exchange Hybrid     =           TRUE
    MP2 Hybrid          =          FALSE

   => Exchange Functionals <=

    0.0800   Slater exchange
    0.7200         Becke 88

   => Exact (HF) Exchange <=

    0.2000               HF 

   => Correlation Functionals <=

    0.1900   Vosko, Wilk & Nusair (VWN5_RPA)
    0.8100   Lee, Yang & Parr

   => LibXC Density Thresholds  <==

    XC_HYB_GGA_XC_B3LYP:  1.00E-15 

   => Molecular Quadrature <=

    Radial Scheme          =       TREUTLER
    Pruning Scheme         =           NONE
    Nuclear Scheme         =       TREUTLER

    Blocking Scheme        =         OCTREE
    BS radius alpha        =              1
    Pruning alpha          =              1
    Radial Points          =             75
    Spherical Points       =            302
    Total Points           =          42436
    Total Blocks           =            374
    Max Points             =            255
    Max Functions          =             60
    Weights Tolerance      =       1.00E-15

   => Loading Basis Set <=

    Name: (CC-PVTZ AUX)
    Role: JKFIT
    Keyword: DF_BASIS_SCF
    atoms 1-2 entry N          line   177 file /Users/joseantoniorodriguesromero/anaconda3/share/psi4/basis/cc-pvtz-jkfit.gbs 

   => Loading Basis Set <=

    Name: CC-PVTZ
    Role: ORBITAL
    Keyword: BASIS
    atoms 1-2 entry N          line   224 file /Users/joseantoniorodriguesromero/anaconda3/share/psi4/basis/cc-pvtz.gbs 

  Reading orbitals from file /tmp/scan_NN_27.default.49027.180.npy, no projection.

  ==> Integral Setup <==

  DFHelper Memory: AOs need 0.005 GiB; user supplied 0.295 GiB. 
  Using in-core AOs.

  ==> MemDFJK: Density-Fitted J/K Matrices <==

    J tasked:                   Yes
    K tasked:                   Yes
    wK tasked:                   No
    OpenMP threads:               1
    Memory [MiB]:               302
    Algorithm:                 Core
    Schwarz Cutoff:           1E-12
    Mask sparsity (%):       0.0000
    Fitting Condition:        1E-10

   => Auxiliary Basis Set <=

  Basis Set: (CC-PVTZ AUX)
    Blend: CC-PVTZ-JKFIT
    Number of shells: 50
    Number of basis functions: 158
    Number of Cartesian functions: 192
    Spherical Harmonics?: true
    Max angular momentum: 4

  Cached 100.0% of DFT collocation blocks in 0.071 [GiB].

  Minimum eigenvalue in the overlap matrix is 2.6623827296E-03.
  Reciprocal condition number of the overlap matrix is 7.2013258211E-04.
    Using symmetric orthogonalization.

  ==> Pre-Iterations <==

  SCF Guess: Orbitals guess was supplied from a previous computation.

   -------------------------------------------------------
    Irrep   Nso     Nmo     Nalpha   Nbeta   Ndocc  Nsocc
   -------------------------------------------------------
     Ag        13      13       3       3       3       0
     B1g        3       3       0       0       0       0
     B2g        7       7       1       0       0       1
     B3g        7       7       0       0       0       0
     Au         3       3       0       0       0       0
     B1u       13      13       2       2       2       0
     B2u        7       7       1       1       1       0
     B3u        7       7       1       1       1       0
   -------------------------------------------------------
    Total      60      60       8       7       7       1
   -------------------------------------------------------

  ==> Iterations <==

                           Total Energy        Delta E     RMS |[F,P]|

   @DF-UKS iter   0:  -109.47926409354736   -1.09479e+02   1.39185e-11 
   @DF-UKS iter   1:  -109.47926409354736    0.00000e+00   1.09167e-11 DIIS
  Energy and wave function converged.


  ==> Post-Iterations <==

   Electrons on quadrature grid:
      Nalpha   =    8.0000000944 ; deviation = 9.440e-08
      Nbeta    =    7.0000001206 ; deviation = 1.206e-07
      Ntotal   =   15.0000002150 ; deviation = 2.150e-07 

   @Spin Contamination Metric:   2.617591600E-03
   @S^2 Expected:                7.500000000E-01
   @S^2 Observed:                7.526175916E-01
   @S   Expected:                5.000000000E-01
   @S   Observed:                5.000000000E-01

    Orbital Energies [Eh]
    ---------------------

    Alpha Occupied:                                                       

       1Ag   -14.009404     1B1u  -14.008267     2Ag    -0.715382  
       2B1u   -0.212042     1B3u   -0.109112     1B2u   -0.088012  
       3Ag    -0.068344     1B2g    0.211787  

    Alpha Virtual:                                                        

       1B3g    0.304617     3B1u    0.546573     2B3u    0.691413  
       2B2u    0.693115     4Ag     0.696987     2B2g    0.805168  
       5Ag     0.810953     2B3g    0.820934     4B1u    0.994132  
       5B1u    1.144312     1B1g    1.180478     6Ag     1.181597  
       3B3u    1.415543     3B2u    1.416486     1Au     1.578758  
       6B1u    1.580356     3B2g    1.997552     3B3g    2.000880  
       7Ag     2.011606     7B1u    2.183512     4B3u    3.100630  
       4B2u    3.111324     8Ag     3.269311     4B2g    3.406997  
       4B3g    3.415655     8B1u    3.754473     2B1g    3.826176  
       9Ag     3.827158     5B2u    3.940735     5B3u    3.944081  
       6B3u    3.992072     6B2u    3.992305    10Ag     4.288784  
       5B2g    4.411858     5B3g    4.412083     3B1g    4.717662  
      11Ag     4.720454     2Au     4.841236     9B1u    4.843734  
       6B2g    4.881026    10B1u    4.886855     6B3g    4.887372  
       3Au     5.196624    11B1u    5.197870     7B3u    5.310312  
       7B2u    5.311949    12Ag     5.541484    12B1u    5.941580  
      13Ag     6.580812     7B3g    6.602734     7B2g    6.603499  
      13B1u   14.841905  

    Beta Occupied:                                                        

       1Ag   -13.999245     1B1u  -13.998037     2Ag    -0.697389  
       2B1u   -0.177819     1B2u   -0.079497     3Ag    -0.051103  
       1B3u   -0.046954  

    Beta Virtual:                                                         

       1B3g    0.316020     1B2g    0.347960     3B1u    0.553798  
       2B2u    0.697088     4Ag     0.702227     2B3u    0.716701  
       5Ag     0.820706     2B3g    0.828118     2B2g    0.849750  
       4B1u    1.009446     5B1u    1.161806     1B1g    1.197626  
       6Ag     1.197874     3B2u    1.418661     3B3u    1.443989  
       1Au     1.608130     6B1u    1.608255     3B3g    2.004480  
       7Ag     2.021636     3B2g    2.026855     7B1u    2.194397  
       4B2u    3.119272     4B3u    3.149079     8Ag     3.278005  
       4B3g    3.424382     4B2g    3.456004     8B1u    3.771750  
       2B1g    3.840804     9Ag     3.841109     5B2u    3.943012  
       5B3u    3.967954     6B2u    4.019996     6B3u    4.020241  
      10Ag     4.300224     5B3g    4.443922     5B2g    4.443941  
       3B1g    4.760328    11Ag     4.760462     9B1u    4.881671  
       2Au     4.884944     6B3g    4.890894    10B1u    4.903969  
       6B2g    4.917788     3Au     5.218093    11B1u    5.218920  
       7B2u    5.315514     7B3u    5.344587    12Ag     5.559985  
      12B1u    5.954255    13Ag     6.593519     7B3g    6.606270  
       7B2g    6.633662    13B1u   14.856611  

    Final Occupation by Irrep:
             Ag   B1g   B2g   B3g    Au   B1u   B2u   B3u 
    DOCC [     3,    0,    0,    0,    0,    2,    1,    1 ]
    SOCC [     0,    0,    1,    0,    0,    0,    0,    0 ]
    NA   [     3,    0,    1,    0,    0,    2,    1,    1 ]
    NB   [     3,    0,    0,    0,    0,    2,    1,    1 ]

  @DF-UKS Final Energy:  -109.47926409354736

   => Energetics <=

    Nuclear Repulsion Energy =             22.7211004076616518
    One-Electron Energy =                -198.1912486111150997
    Two-Electron Energy =                  77.3371873366330647
    DFT Exchange-Correlation Energy =     -11.3463032267269668
    Empirical Dispersion Energy =           0.0000000000000000
    VV10 Nonlocal Energy =                  0.0000000000000000
    Total Energy =                       -109.4792640935473571

  UHF NO Occupations:
  HONO-2 :    2B1u 1.9996831
  HONO-1 :    1B3u 1.9992095
  HONO-0 :    1B2g 1.0000000
  LUNO+0 :    2B3u 0.0007905
  LUNO+1 :    3B1u 0.0003169
  LUNO+2 :    4 Ag 0.0001635
  LUNO+3 :    2B2u 0.0000292


Computation Completed


Properties will be evaluated at   0.000000,   0.000000,   0.000000 [a0]

Properties computed using the B3LYP density matrix


 Multipole Moments:

 ------------------------------------------------------------------------------------
     Multipole            Electronic (a.u.)      Nuclear  (a.u.)        Total (a.u.)
 ------------------------------------------------------------------------------------

 L = 1.  Multiply by 2.5417464519 to convert [e a0] to [Debye]
 Dipole X            :          0.0000000            0.0000000            0.0000000
 Dipole Y            :          0.0000000            0.0000000            0.0000000
 Dipole Z            :          0.0000000           -0.0000000           -0.0000000
 Magnitude           :                                                    0.0000000

 L = 2.  Multiply by 1.3450342976 to convert [e a0^2] to [Debye ang]
 Quadrupole XX       :        -10.3464380            0.0000000          -10.3464380
 Quadrupole XY       :          0.0000000            0.0000000            0.0000000
 Quadrupole XZ       :          0.0000000            0.0000000            0.0000000
 Quadrupole YY       :         -9.1588903            0.0000000           -9.1588903
 Quadrupole YZ       :          0.0000000            0.0000000            0.0000000
 Quadrupole ZZ       :        -29.1373932           16.2780164          -12.8593768
 Traceless XX        :          5.8678025           -5.4260055            0.4417970
 Traceless YY        :          7.0553502           -5.4260055            1.6293448
 Traceless ZZ        :        -12.9231527           10.8520110           -2.0711418

 ------------------------------------------------------------------------------------
  ==> Computing MBIS Charges <==

  Electron Count from Grid (Expected Number): 15.00000 (15.00000)
  Difference:  0.00000

  MBIS Charges: (a.u.)
   Center  Symbol  Z      Pop.       Charge
      1       N    7    7.500000   -0.500000
      2       N    7    7.500000   -0.500000

  MBIS Dipoles: [e a0]
   Center  Symbol  Z        X           Y           Z
      1       N    7   -0.000000   -0.000000    0.237665
      2       N    7   -0.000000   -0.000000   -0.237665

  MBIS Quadrupoles: [e a0^2]
   Center  Symbol  Z      XX        XY        XZ        YY        YZ        ZZ
      1       N    7   -5.1732    0.0000   -0.0000   -4.5794   -0.0000   -5.3358
      2       N    7   -5.1732    0.0000    0.0000   -4.5794    0.0000   -5.3358

  MBIS Octupoles: [e a0^3]
   Center  Symbol  Z      XXX       XXY       XXZ       XYY       XYZ       XZZ       YYY       YYZ       YZZ       ZZZ
      1       N    7   -0.0000   -0.0000    0.5186   -0.0000    0.0000    0.0000   -0.0000    0.2267   -0.0000    0.3736
      2       N    7   -0.0000   -0.0000   -0.5186   -0.0000   -0.0000    0.0000   -0.0000   -0.2267   -0.0000   -0.3736

  MBIS Radial Moments:
   Center  Symbol  Z      [a0^2]      [a0^3]      [a0^4]      
      1       N    7   15.088449   34.159540   91.882341
      2       N    7   15.088449   34.159540   91.882341

  MBIS Valence Widths: [a0]
   Center  Symbol  Z     Width
      1       N    7    0.466433
      2       N    7    0.466433

*** tstop() called on Mac.lan at Sun Aug 10 17:33:28 2025
Module time:
	user time   =       3.30 seconds =       0.06 minutes
	system time =       2.30 seconds =       0.04 minutes
	total time  =          0 seconds =       0.00 minutes
Total time:
	user time   =      14.06 seconds =       0.23 minutes
	system time =       4.51 seconds =       0.08 minutes
	total time  =          2 seconds =       0.03 minutes

    Psi4 stopped on: Sunday, 10 August 2025 05:33PM
    Psi4 wall time for execution: 0:00:01.82

*** Psi4 exiting successfully. Buy a developer a beer!
